TITLE = "  0.00000E+00 [d]"
VARIABLES="X [m]","Y [m]","Z [m]","Liquid Pressure [Pa]","Liquid Saturation","Material ID"
ZONE T="0.00000E+00", I=3, J=3, K=3, VARLOCATION=([4-6]=CELLCENTERED), DATAPACKING=BLOCK
 0.000000E+00  1.000000E+00  2.000000E+00  0.000000E+00  1.000000E+00  2.000000E+00  0.000000E+00  1.000000E+00  2.000000E+00  0.000000E+00 
 1.000000E+00  2.000000E+00  0.000000E+00  1.000000E+00  2.000000E+00  0.000000E+00  1.000000E+00  2.000000E+00  0.000000E+00  1.000000E+00 
 2.000000E+00  0.000000E+00  1.000000E+00  2.000000E+00  0.000000E+00  1.000000E+00  2.000000E+00 
 0.000000E+00  0.000000E+00  0.000000E+00  1.000000E+00  1.000000E+00  1.000000E+00  2.000000E+00  2.000000E+00  2.000000E+00  0.000000E+00 
 0.000000E+00  0.000000E+00  1.000000E+00  1.000000E+00  1.000000E+00  2.000000E+00  2.000000E+00  2.000000E+00  0.000000E+00  0.000000E+00 
 0.000000E+00  1.000000E+00  1.000000E+00  1.000000E+00  2.000000E+00  2.000000E+00  2.000000E+00 
 0.000000E+00  0.000000E+00  0.000000E+00  0.000000E+00  0.000000E+00  0.000000E+00  0.000000E+00  0.000000E+00  0.000000E+00  1.000000E+00 
 1.000000E+00  1.000000E+00  1.000000E+00  1.000000E+00  1.000000E+00  1.000000E+00  1.000000E+00  1.000000E+00  2.000000E+00  2.000000E+00 
 2.000000E+00  2.000000E+00  2.000000E+00  2.000000E+00  2.000000E+00  2.000000E+00  2.000000E+00 
 0.000000E+00  0.000000E+00  0.000000E+00  0.000000E+00  0.000000E+00  0.000000E+00  0.000000E+00  0.000000E+00
 3.532542E-01  3.532542E-01  3.532542E-01  3.532542E-01  2.993827E-01  2.993827E-01  2.993827E-01  2.993827E-01
 2  2  2  2  1  1  1  1
