TITLE = "  3.00000E+00 [d]"
VARIABLES="X [m]","Y [m]","Z [m]","Liquid Pressure [Pa]","Liquid Saturation","Material ID"
ZONE T="3.00000E+00", I=1, J=1, K=100, DATAPACKING=POINT
 5.000000E-01  5.000000E-01  5.000000E-02  1.106150E+05  1.000000E+00    1 
 5.000000E-01  5.000000E-01  1.500000E-01  1.096371E+05  1.000000E+00    1 
 5.000000E-01  5.000000E-01  2.500000E-01  1.086592E+05  1.000000E+00    1 
 5.000000E-01  5.000000E-01  3.500000E-01  1.076813E+05  1.000000E+00    1 
 5.000000E-01  5.000000E-01  4.500000E-01  1.067034E+05  1.000000E+00    1 
 5.000000E-01  5.000000E-01  5.500000E-01  1.057255E+05  1.000000E+00    1 
 5.000000E-01  5.000000E-01  6.500000E-01  1.047476E+05  1.000000E+00    1 
 5.000000E-01  5.000000E-01  7.500000E-01  1.037697E+05  1.000000E+00    1 
 5.000000E-01  5.000000E-01  8.500000E-01  1.027918E+05  1.000000E+00    1 
 5.000000E-01  5.000000E-01  9.500000E-01  1.018139E+05  1.000000E+00    1 
 5.000000E-01  5.000000E-01  1.050000E+00  1.008361E+05  9.989261E-01    1 
 5.000000E-01  5.000000E-01  1.150000E+00  9.985816E+04  9.904712E-01    1 
 5.000000E-01  5.000000E-01  1.250000E+00  9.888026E+04  9.742532E-01    1 
 5.000000E-01  5.000000E-01  1.350000E+00  9.790237E+04  9.515064E-01    1 
 5.000000E-01  5.000000E-01  1.450000E+00  9.692447E+04  9.237675E-01    1 
 5.000000E-01  5.000000E-01  1.550000E+00  9.594658E+04  8.926288E-01    1 
 5.000000E-01  5.000000E-01  1.650000E+00  9.496868E+04  8.595470E-01    1 
 5.000000E-01  5.000000E-01  1.750000E+00  9.399079E+04  8.257341E-01    1 
 5.000000E-01  5.000000E-01  1.850000E+00  9.301289E+04  7.921212E-01    1 
 5.000000E-01  5.000000E-01  1.950000E+00  9.203500E+04  7.593732E-01    1 
 5.000000E-01  5.000000E-01  2.050000E+00  9.105711E+04  7.279296E-01    1 
 5.000000E-01  5.000000E-01  2.150000E+00  9.007921E+04  6.980525E-01    1 
 5.000000E-01  5.000000E-01  2.250000E+00  8.910132E+04  6.698732E-01    1 
 5.000000E-01  5.000000E-01  2.350000E+00  8.812343E+04  6.434307E-01    1 
 5.000000E-01  5.000000E-01  2.450000E+00  8.714553E+04  6.187020E-01    1 
 5.000000E-01  5.000000E-01  2.550000E+00  8.616764E+04  5.956248E-01    1 
 5.000000E-01  5.000000E-01  2.650000E+00  8.518975E+04  5.741137E-01    1 
 5.000000E-01  5.000000E-01  2.750000E+00  8.421186E+04  5.540711E-01    1 
 5.000000E-01  5.000000E-01  2.850000E+00  8.323397E+04  5.353951E-01    1 
 5.000000E-01  5.000000E-01  2.950000E+00  8.225608E+04  5.179841E-01    1 
 5.000000E-01  5.000000E-01  3.050000E+00  8.127819E+04  5.017399E-01    1 
 5.000000E-01  5.000000E-01  3.150000E+00  8.030031E+04  4.865697E-01    1 
 5.000000E-01  5.000000E-01  3.250000E+00  7.932242E+04  4.723865E-01    1 
 5.000000E-01  5.000000E-01  3.350000E+00  7.834454E+04  4.591100E-01    1 
 5.000000E-01  5.000000E-01  3.450000E+00  7.736665E+04  4.466664E-01    1 
 5.000000E-01  5.000000E-01  3.550000E+00  7.638877E+04  4.349881E-01    1 
 5.000000E-01  5.000000E-01  3.650000E+00  7.541089E+04  4.240134E-01    1 
 5.000000E-01  5.000000E-01  3.750000E+00  7.443301E+04  4.136861E-01    1 
 5.000000E-01  5.000000E-01  3.850000E+00  7.345513E+04  4.039552E-01    1 
 5.000000E-01  5.000000E-01  3.950000E+00  7.247724E+04  3.947743E-01    1 
 5.000000E-01  5.000000E-01  4.050000E+00  7.149936E+04  3.861011E-01    1 
 5.000000E-01  5.000000E-01  4.150000E+00  7.052148E+04  3.778974E-01    1 
 5.000000E-01  5.000000E-01  4.250000E+00  6.954361E+04  3.701282E-01    1 
 5.000000E-01  5.000000E-01  4.350000E+00  6.856573E+04  3.627617E-01    1 
 5.000000E-01  5.000000E-01  4.450000E+00  6.758785E+04  3.557690E-01    1 
 5.000000E-01  5.000000E-01  4.550000E+00  6.660997E+04  3.491237E-01    1 
 5.000000E-01  5.000000E-01  4.650000E+00  6.563209E+04  3.428017E-01    1 
 5.000000E-01  5.000000E-01  4.750000E+00  6.465421E+04  3.367809E-01    1 
 5.000000E-01  5.000000E-01  4.850000E+00  6.367634E+04  3.310411E-01    1 
 5.000000E-01  5.000000E-01  4.950000E+00  6.269846E+04  3.255639E-01    1 
 5.000000E-01  5.000000E-01  5.050000E+00  6.172058E+04  3.203323E-01    1 
 5.000000E-01  5.000000E-01  5.150000E+00  6.074270E+04  3.153306E-01    1 
 5.000000E-01  5.000000E-01  5.250000E+00  5.976483E+04  3.105444E-01    1 
 5.000000E-01  5.000000E-01  5.350000E+00  5.878695E+04  3.059607E-01    1 
 5.000000E-01  5.000000E-01  5.450000E+00  5.780908E+04  3.015671E-01    1 
 5.000000E-01  5.000000E-01  5.550000E+00  5.683120E+04  2.973524E-01    1 
 5.000000E-01  5.000000E-01  5.650000E+00  5.585333E+04  2.933061E-01    1 
 5.000000E-01  5.000000E-01  5.750000E+00  5.487545E+04  2.894187E-01    1 
 5.000000E-01  5.000000E-01  5.850000E+00  5.389758E+04  2.856811E-01    1 
 5.000000E-01  5.000000E-01  5.950000E+00  5.291970E+04  2.820851E-01    1 
 5.000000E-01  5.000000E-01  6.050000E+00  5.194183E+04  2.786229E-01    1 
 5.000000E-01  5.000000E-01  6.150000E+00  5.096396E+04  2.752873E-01    1 
 5.000000E-01  5.000000E-01  6.250000E+00  4.998609E+04  2.720717E-01    1 
 5.000000E-01  5.000000E-01  6.350000E+00  4.900821E+04  2.689699E-01    1 
 5.000000E-01  5.000000E-01  6.450000E+00  4.803034E+04  2.659760E-01    1 
 5.000000E-01  5.000000E-01  6.550000E+00  4.705247E+04  2.630845E-01    1 
 5.000000E-01  5.000000E-01  6.650000E+00  4.607460E+04  2.602904E-01    1 
 5.000000E-01  5.000000E-01  6.750000E+00  4.509673E+04  2.575890E-01    1 
 5.000000E-01  5.000000E-01  6.850000E+00  4.411886E+04  2.549758E-01    1 
 5.000000E-01  5.000000E-01  6.950000E+00  4.314099E+04  2.524465E-01    1 
 5.000000E-01  5.000000E-01  7.050000E+00  4.216312E+04  2.499973E-01    1 
 5.000000E-01  5.000000E-01  7.150000E+00  4.118525E+04  2.476245E-01    1 
 5.000000E-01  5.000000E-01  7.250000E+00  4.020738E+04  2.453246E-01    1 
 5.000000E-01  5.000000E-01  7.350000E+00  3.922952E+04  2.430944E-01    1 
 5.000000E-01  5.000000E-01  7.450000E+00  3.825165E+04  2.409307E-01    1 
 5.000000E-01  5.000000E-01  7.550000E+00  3.727378E+04  2.388307E-01    1 
 5.000000E-01  5.000000E-01  7.650000E+00  3.629591E+04  2.367917E-01    1 
 5.000000E-01  5.000000E-01  7.750000E+00  3.531805E+04  2.348110E-01    1 
 5.000000E-01  5.000000E-01  7.850000E+00  3.434018E+04  2.328862E-01    1 
 5.000000E-01  5.000000E-01  7.950000E+00  3.336232E+04  2.310150E-01    1 
 5.000000E-01  5.000000E-01  8.050000E+00  3.238445E+04  2.291952E-01    1 
 5.000000E-01  5.000000E-01  8.150000E+00  3.140659E+04  2.274248E-01    1 
 5.000000E-01  5.000000E-01  8.250000E+00  3.042872E+04  2.257017E-01    1 
 5.000000E-01  5.000000E-01  8.350000E+00  2.945086E+04  2.240242E-01    1 
 5.000000E-01  5.000000E-01  8.450000E+00  2.847300E+04  2.223905E-01    1 
 5.000000E-01  5.000000E-01  8.550000E+00  2.749513E+04  2.207988E-01    1 
 5.000000E-01  5.000000E-01  8.650000E+00  2.651727E+04  2.192477E-01    1 
 5.000000E-01  5.000000E-01  8.750000E+00  2.553941E+04  2.177356E-01    1 
 5.000000E-01  5.000000E-01  8.850000E+00  2.456155E+04  2.162609E-01    1 
 5.000000E-01  5.000000E-01  8.950000E+00  2.358369E+04  2.148225E-01    1 
 5.000000E-01  5.000000E-01  9.050000E+00  2.260584E+04  2.134190E-01    1 
 5.000000E-01  5.000000E-01  9.150000E+00  2.162802E+04  2.120491E-01    1 
 5.000000E-01  5.000000E-01  9.250000E+00  2.065029E+04  2.107118E-01    1 
 5.000000E-01  5.000000E-01  9.350000E+00  1.967294E+04  2.094064E-01    1 
 5.000000E-01  5.000000E-01  9.450000E+00  1.869689E+04  2.081327E-01    1 
 5.000000E-01  5.000000E-01  9.550000E+00  1.772522E+04  2.068938E-01    1 
 5.000000E-01  5.000000E-01  9.650000E+00  1.676747E+04  2.056998E-01    1 
 5.000000E-01  5.000000E-01  9.750000E+00  1.585034E+04  2.045811E-01    1 
 5.000000E-01  5.000000E-01  9.850000E+00  1.503737E+04  2.036089E-01    1 
 5.000000E-01  5.000000E-01  9.950000E+00  1.444310E+04  2.029095E-01    1 
