TITLE = "  8.00000E+00 [d]"
VARIABLES="X [m]","Y [m]","Z [m]","Liquid Pressure [Pa]","Liquid Saturation","Material ID"
ZONE T="8.00000E+00", I=1, J=1, K=100, DATAPACKING=POINT
 5.000000E-01  5.000000E-01  5.000000E-02  1.106150E+05  1.000000E+00    1 
 5.000000E-01  5.000000E-01  1.500000E-01  1.096371E+05  1.000000E+00    1 
 5.000000E-01  5.000000E-01  2.500000E-01  1.086592E+05  1.000000E+00    1 
 5.000000E-01  5.000000E-01  3.500000E-01  1.076813E+05  1.000000E+00    1 
 5.000000E-01  5.000000E-01  4.500000E-01  1.067034E+05  1.000000E+00    1 
 5.000000E-01  5.000000E-01  5.500000E-01  1.057255E+05  1.000000E+00    1 
 5.000000E-01  5.000000E-01  6.500000E-01  1.047476E+05  1.000000E+00    1 
 5.000000E-01  5.000000E-01  7.500000E-01  1.037697E+05  1.000000E+00    1 
 5.000000E-01  5.000000E-01  8.500000E-01  1.027918E+05  1.000000E+00    1 
 5.000000E-01  5.000000E-01  9.500000E-01  1.018139E+05  1.000000E+00    1 
 5.000000E-01  5.000000E-01  1.050000E+00  1.008361E+05  9.989261E-01    1 
 5.000000E-01  5.000000E-01  1.150000E+00  9.985816E+04  9.904712E-01    1 
 5.000000E-01  5.000000E-01  1.250000E+00  9.888026E+04  9.742532E-01    1 
 5.000000E-01  5.000000E-01  1.350000E+00  9.790237E+04  9.515064E-01    1 
 5.000000E-01  5.000000E-01  1.450000E+00  9.692447E+04  9.237675E-01    1 
 5.000000E-01  5.000000E-01  1.550000E+00  9.594658E+04  8.926288E-01    1 
 5.000000E-01  5.000000E-01  1.650000E+00  9.496868E+04  8.595470E-01    1 
 5.000000E-01  5.000000E-01  1.750000E+00  9.399079E+04  8.257340E-01    1 
 5.000000E-01  5.000000E-01  1.850000E+00  9.301289E+04  7.921211E-01    1 
 5.000000E-01  5.000000E-01  1.950000E+00  9.203500E+04  7.593731E-01    1 
 5.000000E-01  5.000000E-01  2.050000E+00  9.105710E+04  7.279295E-01    1 
 5.000000E-01  5.000000E-01  2.150000E+00  9.007921E+04  6.980524E-01    1 
 5.000000E-01  5.000000E-01  2.250000E+00  8.910131E+04  6.698731E-01    1 
 5.000000E-01  5.000000E-01  2.350000E+00  8.812342E+04  6.434306E-01    1 
 5.000000E-01  5.000000E-01  2.450000E+00  8.714553E+04  6.187018E-01    1 
 5.000000E-01  5.000000E-01  2.550000E+00  8.616763E+04  5.956246E-01    1 
 5.000000E-01  5.000000E-01  2.650000E+00  8.518974E+04  5.741135E-01    1 
 5.000000E-01  5.000000E-01  2.750000E+00  8.421185E+04  5.540708E-01    1 
 5.000000E-01  5.000000E-01  2.850000E+00  8.323396E+04  5.353948E-01    1 
 5.000000E-01  5.000000E-01  2.950000E+00  8.225606E+04  5.179838E-01    1 
 5.000000E-01  5.000000E-01  3.050000E+00  8.127817E+04  5.017396E-01    1 
 5.000000E-01  5.000000E-01  3.150000E+00  8.030028E+04  4.865693E-01    1 
 5.000000E-01  5.000000E-01  3.250000E+00  7.932240E+04  4.723861E-01    1 
 5.000000E-01  5.000000E-01  3.350000E+00  7.834451E+04  4.591096E-01    1 
 5.000000E-01  5.000000E-01  3.450000E+00  7.736662E+04  4.466660E-01    1 
 5.000000E-01  5.000000E-01  3.550000E+00  7.638874E+04  4.349877E-01    1 
 5.000000E-01  5.000000E-01  3.650000E+00  7.541085E+04  4.240130E-01    1 
 5.000000E-01  5.000000E-01  3.750000E+00  7.443297E+04  4.136857E-01    1 
 5.000000E-01  5.000000E-01  3.850000E+00  7.345508E+04  4.039548E-01    1 
 5.000000E-01  5.000000E-01  3.950000E+00  7.247720E+04  3.947739E-01    1 
 5.000000E-01  5.000000E-01  4.050000E+00  7.149932E+04  3.861008E-01    1 
 5.000000E-01  5.000000E-01  4.150000E+00  7.052144E+04  3.778970E-01    1 
 5.000000E-01  5.000000E-01  4.250000E+00  6.954356E+04  3.701278E-01    1 
 5.000000E-01  5.000000E-01  4.350000E+00  6.856568E+04  3.627614E-01    1 
 5.000000E-01  5.000000E-01  4.450000E+00  6.758781E+04  3.557687E-01    1 
 5.000000E-01  5.000000E-01  4.550000E+00  6.660993E+04  3.491235E-01    1 
 5.000000E-01  5.000000E-01  4.650000E+00  6.563205E+04  3.428015E-01    1 
 5.000000E-01  5.000000E-01  4.750000E+00  6.465418E+04  3.367807E-01    1 
 5.000000E-01  5.000000E-01  4.850000E+00  6.367630E+04  3.310410E-01    1 
 5.000000E-01  5.000000E-01  4.950000E+00  6.269843E+04  3.255638E-01    1 
 5.000000E-01  5.000000E-01  5.050000E+00  6.172055E+04  3.203321E-01    1 
 5.000000E-01  5.000000E-01  5.150000E+00  6.074268E+04  3.153304E-01    1 
 5.000000E-01  5.000000E-01  5.250000E+00  5.976480E+04  3.105443E-01    1 
 5.000000E-01  5.000000E-01  5.350000E+00  5.878693E+04  3.059606E-01    1 
 5.000000E-01  5.000000E-01  5.450000E+00  5.780905E+04  3.015670E-01    1 
 5.000000E-01  5.000000E-01  5.550000E+00  5.683118E+04  2.973523E-01    1 
 5.000000E-01  5.000000E-01  5.650000E+00  5.585331E+04  2.933060E-01    1 
 5.000000E-01  5.000000E-01  5.750000E+00  5.487543E+04  2.894186E-01    1 
 5.000000E-01  5.000000E-01  5.850000E+00  5.389756E+04  2.856810E-01    1 
 5.000000E-01  5.000000E-01  5.950000E+00  5.291969E+04  2.820850E-01    1 
 5.000000E-01  5.000000E-01  6.050000E+00  5.194182E+04  2.786228E-01    1 
 5.000000E-01  5.000000E-01  6.150000E+00  5.096394E+04  2.752873E-01    1 
 5.000000E-01  5.000000E-01  6.250000E+00  4.998607E+04  2.720717E-01    1 
 5.000000E-01  5.000000E-01  6.350000E+00  4.900820E+04  2.689698E-01    1 
 5.000000E-01  5.000000E-01  6.450000E+00  4.803033E+04  2.659759E-01    1 
 5.000000E-01  5.000000E-01  6.550000E+00  4.705246E+04  2.630845E-01    1 
 5.000000E-01  5.000000E-01  6.650000E+00  4.607459E+04  2.602904E-01    1 
 5.000000E-01  5.000000E-01  6.750000E+00  4.509672E+04  2.575890E-01    1 
 5.000000E-01  5.000000E-01  6.850000E+00  4.411885E+04  2.549757E-01    1 
 5.000000E-01  5.000000E-01  6.950000E+00  4.314098E+04  2.524465E-01    1 
 5.000000E-01  5.000000E-01  7.050000E+00  4.216311E+04  2.499973E-01    1 
 5.000000E-01  5.000000E-01  7.150000E+00  4.118524E+04  2.476245E-01    1 
 5.000000E-01  5.000000E-01  7.250000E+00  4.020737E+04  2.453246E-01    1 
 5.000000E-01  5.000000E-01  7.350000E+00  3.922951E+04  2.430944E-01    1 
 5.000000E-01  5.000000E-01  7.450000E+00  3.825164E+04  2.409307E-01    1 
 5.000000E-01  5.000000E-01  7.550000E+00  3.727377E+04  2.388307E-01    1 
 5.000000E-01  5.000000E-01  7.650000E+00  3.629591E+04  2.367917E-01    1 
 5.000000E-01  5.000000E-01  7.750000E+00  3.531804E+04  2.348109E-01    1 
 5.000000E-01  5.000000E-01  7.850000E+00  3.434018E+04  2.328861E-01    1 
 5.000000E-01  5.000000E-01  7.950000E+00  3.336231E+04  2.310150E-01    1 
 5.000000E-01  5.000000E-01  8.050000E+00  3.238445E+04  2.291952E-01    1 
 5.000000E-01  5.000000E-01  8.150000E+00  3.140658E+04  2.274248E-01    1 
 5.000000E-01  5.000000E-01  8.250000E+00  3.042872E+04  2.257017E-01    1 
 5.000000E-01  5.000000E-01  8.350000E+00  2.945086E+04  2.240242E-01    1 
 5.000000E-01  5.000000E-01  8.450000E+00  2.847300E+04  2.223905E-01    1 
 5.000000E-01  5.000000E-01  8.550000E+00  2.749515E+04  2.207989E-01    1 
 5.000000E-01  5.000000E-01  8.650000E+00  2.651732E+04  2.192478E-01    1 
 5.000000E-01  5.000000E-01  8.750000E+00  2.553953E+04  2.177357E-01    1 
 5.000000E-01  5.000000E-01  8.850000E+00  2.456185E+04  2.162614E-01    1 
 5.000000E-01  5.000000E-01  8.950000E+00  2.358443E+04  2.148236E-01    1 
 5.000000E-01  5.000000E-01  9.050000E+00  2.260758E+04  2.134215E-01    1 
 5.000000E-01  5.000000E-01  9.150000E+00  2.163208E+04  2.120548E-01    1 
 5.000000E-01  5.000000E-01  9.250000E+00  2.065957E+04  2.107244E-01    1 
 5.000000E-01  5.000000E-01  9.350000E+00  1.969353E+04  2.094335E-01    1 
 5.000000E-01  5.000000E-01  9.450000E+00  1.874101E+04  2.081897E-01    1 
 5.000000E-01  5.000000E-01  9.550000E+00  1.781529E+04  2.070074E-01    1 
 5.000000E-01  5.000000E-01  9.650000E+00  1.693946E+04  2.059123E-01    1 
 5.000000E-01  5.000000E-01  9.750000E+00  1.614913E+04  2.049430E-01    1 
 5.000000E-01  5.000000E-01  9.850000E+00  1.549046E+04  2.041485E-01    1 
 5.000000E-01  5.000000E-01  9.950000E+00  1.500885E+04  2.035751E-01    1 
