TITLE = "  7.00000E+00 [d]"
VARIABLES="X [m]","Y [m]","Z [m]","Liquid Pressure [Pa]","Liquid Saturation","Material ID"
ZONE T="7.00000E+00", I=1, J=1, K=100, DATAPACKING=POINT
 5.000000E-01  5.000000E-01  5.000000E-02  1.106150E+05  1.000000E+00    1 
 5.000000E-01  5.000000E-01  1.500000E-01  1.096371E+05  1.000000E+00    1 
 5.000000E-01  5.000000E-01  2.500000E-01  1.086592E+05  1.000000E+00    1 
 5.000000E-01  5.000000E-01  3.500000E-01  1.076813E+05  1.000000E+00    1 
 5.000000E-01  5.000000E-01  4.500000E-01  1.067034E+05  1.000000E+00    1 
 5.000000E-01  5.000000E-01  5.500000E-01  1.057255E+05  1.000000E+00    1 
 5.000000E-01  5.000000E-01  6.500000E-01  1.047476E+05  1.000000E+00    1 
 5.000000E-01  5.000000E-01  7.500000E-01  1.037697E+05  1.000000E+00    1 
 5.000000E-01  5.000000E-01  8.500000E-01  1.027918E+05  1.000000E+00    1 
 5.000000E-01  5.000000E-01  9.500000E-01  1.018139E+05  1.000000E+00    1 
 5.000000E-01  5.000000E-01  1.050000E+00  1.008361E+05  9.989261E-01    1 
 5.000000E-01  5.000000E-01  1.150000E+00  9.985816E+04  9.904712E-01    1 
 5.000000E-01  5.000000E-01  1.250000E+00  9.888026E+04  9.742532E-01    1 
 5.000000E-01  5.000000E-01  1.350000E+00  9.790237E+04  9.515064E-01    1 
 5.000000E-01  5.000000E-01  1.450000E+00  9.692447E+04  9.237675E-01    1 
 5.000000E-01  5.000000E-01  1.550000E+00  9.594658E+04  8.926288E-01    1 
 5.000000E-01  5.000000E-01  1.650000E+00  9.496868E+04  8.595470E-01    1 
 5.000000E-01  5.000000E-01  1.750000E+00  9.399079E+04  8.257341E-01    1 
 5.000000E-01  5.000000E-01  1.850000E+00  9.301289E+04  7.921211E-01    1 
 5.000000E-01  5.000000E-01  1.950000E+00  9.203500E+04  7.593731E-01    1 
 5.000000E-01  5.000000E-01  2.050000E+00  9.105710E+04  7.279295E-01    1 
 5.000000E-01  5.000000E-01  2.150000E+00  9.007921E+04  6.980524E-01    1 
 5.000000E-01  5.000000E-01  2.250000E+00  8.910131E+04  6.698731E-01    1 
 5.000000E-01  5.000000E-01  2.350000E+00  8.812342E+04  6.434306E-01    1 
 5.000000E-01  5.000000E-01  2.450000E+00  8.714553E+04  6.187019E-01    1 
 5.000000E-01  5.000000E-01  2.550000E+00  8.616763E+04  5.956247E-01    1 
 5.000000E-01  5.000000E-01  2.650000E+00  8.518974E+04  5.741135E-01    1 
 5.000000E-01  5.000000E-01  2.750000E+00  8.421185E+04  5.540709E-01    1 
 5.000000E-01  5.000000E-01  2.850000E+00  8.323396E+04  5.353948E-01    1 
 5.000000E-01  5.000000E-01  2.950000E+00  8.225607E+04  5.179838E-01    1 
 5.000000E-01  5.000000E-01  3.050000E+00  8.127818E+04  5.017396E-01    1 
 5.000000E-01  5.000000E-01  3.150000E+00  8.030029E+04  4.865694E-01    1 
 5.000000E-01  5.000000E-01  3.250000E+00  7.932240E+04  4.723862E-01    1 
 5.000000E-01  5.000000E-01  3.350000E+00  7.834451E+04  4.591097E-01    1 
 5.000000E-01  5.000000E-01  3.450000E+00  7.736663E+04  4.466661E-01    1 
 5.000000E-01  5.000000E-01  3.550000E+00  7.638874E+04  4.349878E-01    1 
 5.000000E-01  5.000000E-01  3.650000E+00  7.541086E+04  4.240130E-01    1 
 5.000000E-01  5.000000E-01  3.750000E+00  7.443297E+04  4.136858E-01    1 
 5.000000E-01  5.000000E-01  3.850000E+00  7.345509E+04  4.039549E-01    1 
 5.000000E-01  5.000000E-01  3.950000E+00  7.247721E+04  3.947740E-01    1 
 5.000000E-01  5.000000E-01  4.050000E+00  7.149933E+04  3.861008E-01    1 
 5.000000E-01  5.000000E-01  4.150000E+00  7.052145E+04  3.778971E-01    1 
 5.000000E-01  5.000000E-01  4.250000E+00  6.954357E+04  3.701279E-01    1 
 5.000000E-01  5.000000E-01  4.350000E+00  6.856569E+04  3.627614E-01    1 
 5.000000E-01  5.000000E-01  4.450000E+00  6.758781E+04  3.557688E-01    1 
 5.000000E-01  5.000000E-01  4.550000E+00  6.660994E+04  3.491235E-01    1 
 5.000000E-01  5.000000E-01  4.650000E+00  6.563206E+04  3.428015E-01    1 
 5.000000E-01  5.000000E-01  4.750000E+00  6.465418E+04  3.367807E-01    1 
 5.000000E-01  5.000000E-01  4.850000E+00  6.367631E+04  3.310410E-01    1 
 5.000000E-01  5.000000E-01  4.950000E+00  6.269843E+04  3.255638E-01    1 
 5.000000E-01  5.000000E-01  5.050000E+00  6.172056E+04  3.203321E-01    1 
 5.000000E-01  5.000000E-01  5.150000E+00  6.074268E+04  3.153304E-01    1 
 5.000000E-01  5.000000E-01  5.250000E+00  5.976481E+04  3.105443E-01    1 
 5.000000E-01  5.000000E-01  5.350000E+00  5.878693E+04  3.059606E-01    1 
 5.000000E-01  5.000000E-01  5.450000E+00  5.780906E+04  3.015670E-01    1 
 5.000000E-01  5.000000E-01  5.550000E+00  5.683118E+04  2.973523E-01    1 
 5.000000E-01  5.000000E-01  5.650000E+00  5.585331E+04  2.933061E-01    1 
 5.000000E-01  5.000000E-01  5.750000E+00  5.487544E+04  2.894186E-01    1 
 5.000000E-01  5.000000E-01  5.850000E+00  5.389756E+04  2.856810E-01    1 
 5.000000E-01  5.000000E-01  5.950000E+00  5.291969E+04  2.820850E-01    1 
 5.000000E-01  5.000000E-01  6.050000E+00  5.194182E+04  2.786228E-01    1 
 5.000000E-01  5.000000E-01  6.150000E+00  5.096395E+04  2.752873E-01    1 
 5.000000E-01  5.000000E-01  6.250000E+00  4.998607E+04  2.720717E-01    1 
 5.000000E-01  5.000000E-01  6.350000E+00  4.900820E+04  2.689699E-01    1 
 5.000000E-01  5.000000E-01  6.450000E+00  4.803033E+04  2.659759E-01    1 
 5.000000E-01  5.000000E-01  6.550000E+00  4.705246E+04  2.630845E-01    1 
 5.000000E-01  5.000000E-01  6.650000E+00  4.607459E+04  2.602904E-01    1 
 5.000000E-01  5.000000E-01  6.750000E+00  4.509672E+04  2.575890E-01    1 
 5.000000E-01  5.000000E-01  6.850000E+00  4.411885E+04  2.549757E-01    1 
 5.000000E-01  5.000000E-01  6.950000E+00  4.314098E+04  2.524465E-01    1 
 5.000000E-01  5.000000E-01  7.050000E+00  4.216311E+04  2.499973E-01    1 
 5.000000E-01  5.000000E-01  7.150000E+00  4.118524E+04  2.476245E-01    1 
 5.000000E-01  5.000000E-01  7.250000E+00  4.020738E+04  2.453246E-01    1 
 5.000000E-01  5.000000E-01  7.350000E+00  3.922951E+04  2.430944E-01    1 
 5.000000E-01  5.000000E-01  7.450000E+00  3.825164E+04  2.409307E-01    1 
 5.000000E-01  5.000000E-01  7.550000E+00  3.727377E+04  2.388307E-01    1 
 5.000000E-01  5.000000E-01  7.650000E+00  3.629591E+04  2.367917E-01    1 
 5.000000E-01  5.000000E-01  7.750000E+00  3.531804E+04  2.348109E-01    1 
 5.000000E-01  5.000000E-01  7.850000E+00  3.434018E+04  2.328862E-01    1 
 5.000000E-01  5.000000E-01  7.950000E+00  3.336231E+04  2.310150E-01    1 
 5.000000E-01  5.000000E-01  8.050000E+00  3.238445E+04  2.291952E-01    1 
 5.000000E-01  5.000000E-01  8.150000E+00  3.140658E+04  2.274248E-01    1 
 5.000000E-01  5.000000E-01  8.250000E+00  3.042872E+04  2.257017E-01    1 
 5.000000E-01  5.000000E-01  8.350000E+00  2.945086E+04  2.240242E-01    1 
 5.000000E-01  5.000000E-01  8.450000E+00  2.847300E+04  2.223905E-01    1 
 5.000000E-01  5.000000E-01  8.550000E+00  2.749514E+04  2.207989E-01    1 
 5.000000E-01  5.000000E-01  8.650000E+00  2.651729E+04  2.192477E-01    1 
 5.000000E-01  5.000000E-01  8.750000E+00  2.553947E+04  2.177356E-01    1 
 5.000000E-01  5.000000E-01  8.850000E+00  2.456171E+04  2.162612E-01    1 
 5.000000E-01  5.000000E-01  8.950000E+00  2.358409E+04  2.148231E-01    1 
 5.000000E-01  5.000000E-01  9.050000E+00  2.260683E+04  2.134204E-01    1 
 5.000000E-01  5.000000E-01  9.150000E+00  2.163046E+04  2.120525E-01    1 
 5.000000E-01  5.000000E-01  9.250000E+00  2.065615E+04  2.107198E-01    1 
 5.000000E-01  5.000000E-01  9.350000E+00  1.968663E+04  2.094244E-01    1 
 5.000000E-01  5.000000E-01  9.450000E+00  1.872770E+04  2.081725E-01    1 
 5.000000E-01  5.000000E-01  9.550000E+00  1.779115E+04  2.069769E-01    1 
 5.000000E-01  5.000000E-01  9.650000E+00  1.689899E+04  2.058622E-01    1 
 5.000000E-01  5.000000E-01  9.750000E+00  1.608774E+04  2.048684E-01    1 
 5.000000E-01  5.000000E-01  9.850000E+00  1.540833E+04  2.040502E-01    1 
 5.000000E-01  5.000000E-01  9.950000E+00  1.491455E+04  2.034635E-01    1 
