# vtk DataFile Version 2.0
PFLOTRAN output
ASCII
DATASET UNSTRUCTURED_GRID
POINTS          404 float
 0.000000E+00  0.000000E+00  0.000000E+00
 1.000000E+00  0.000000E+00  0.000000E+00
 0.000000E+00  1.000000E+00  0.000000E+00
 1.000000E+00  1.000000E+00  0.000000E+00
 0.000000E+00  0.000000E+00  1.000000E-01
 1.000000E+00  0.000000E+00  1.000000E-01
 0.000000E+00  1.000000E+00  1.000000E-01
 1.000000E+00  1.000000E+00  1.000000E-01
 0.000000E+00  0.000000E+00  2.000000E-01
 1.000000E+00  0.000000E+00  2.000000E-01
 0.000000E+00  1.000000E+00  2.000000E-01
 1.000000E+00  1.000000E+00  2.000000E-01
 0.000000E+00  0.000000E+00  3.000000E-01
 1.000000E+00  0.000000E+00  3.000000E-01
 0.000000E+00  1.000000E+00  3.000000E-01
 1.000000E+00  1.000000E+00  3.000000E-01
 0.000000E+00  0.000000E+00  4.000000E-01
 1.000000E+00  0.000000E+00  4.000000E-01
 0.000000E+00  1.000000E+00  4.000000E-01
 1.000000E+00  1.000000E+00  4.000000E-01
 0.000000E+00  0.000000E+00  5.000000E-01
 1.000000E+00  0.000000E+00  5.000000E-01
 0.000000E+00  1.000000E+00  5.000000E-01
 1.000000E+00  1.000000E+00  5.000000E-01
 0.000000E+00  0.000000E+00  6.000000E-01
 1.000000E+00  0.000000E+00  6.000000E-01
 0.000000E+00  1.000000E+00  6.000000E-01
 1.000000E+00  1.000000E+00  6.000000E-01
 0.000000E+00  0.000000E+00  7.000000E-01
 1.000000E+00  0.000000E+00  7.000000E-01
 0.000000E+00  1.000000E+00  7.000000E-01
 1.000000E+00  1.000000E+00  7.000000E-01
 0.000000E+00  0.000000E+00  8.000000E-01
 1.000000E+00  0.000000E+00  8.000000E-01
 0.000000E+00  1.000000E+00  8.000000E-01
 1.000000E+00  1.000000E+00  8.000000E-01
 0.000000E+00  0.000000E+00  9.000000E-01
 1.000000E+00  0.000000E+00  9.000000E-01
 0.000000E+00  1.000000E+00  9.000000E-01
 1.000000E+00  1.000000E+00  9.000000E-01
 0.000000E+00  0.000000E+00  1.000000E+00
 1.000000E+00  0.000000E+00  1.000000E+00
 0.000000E+00  1.000000E+00  1.000000E+00
 1.000000E+00  1.000000E+00  1.000000E+00
 0.000000E+00  0.000000E+00  1.100000E+00
 1.000000E+00  0.000000E+00  1.100000E+00
 0.000000E+00  1.000000E+00  1.100000E+00
 1.000000E+00  1.000000E+00  1.100000E+00
 0.000000E+00  0.000000E+00  1.200000E+00
 1.000000E+00  0.000000E+00  1.200000E+00
 0.000000E+00  1.000000E+00  1.200000E+00
 1.000000E+00  1.000000E+00  1.200000E+00
 0.000000E+00  0.000000E+00  1.300000E+00
 1.000000E+00  0.000000E+00  1.300000E+00
 0.000000E+00  1.000000E+00  1.300000E+00
 1.000000E+00  1.000000E+00  1.300000E+00
 0.000000E+00  0.000000E+00  1.400000E+00
 1.000000E+00  0.000000E+00  1.400000E+00
 0.000000E+00  1.000000E+00  1.400000E+00
 1.000000E+00  1.000000E+00  1.400000E+00
 0.000000E+00  0.000000E+00  1.500000E+00
 1.000000E+00  0.000000E+00  1.500000E+00
 0.000000E+00  1.000000E+00  1.500000E+00
 1.000000E+00  1.000000E+00  1.500000E+00
 0.000000E+00  0.000000E+00  1.600000E+00
 1.000000E+00  0.000000E+00  1.600000E+00
 0.000000E+00  1.000000E+00  1.600000E+00
 1.000000E+00  1.000000E+00  1.600000E+00
 0.000000E+00  0.000000E+00  1.700000E+00
 1.000000E+00  0.000000E+00  1.700000E+00
 0.000000E+00  1.000000E+00  1.700000E+00
 1.000000E+00  1.000000E+00  1.700000E+00
 0.000000E+00  0.000000E+00  1.800000E+00
 1.000000E+00  0.000000E+00  1.800000E+00
 0.000000E+00  1.000000E+00  1.800000E+00
 1.000000E+00  1.000000E+00  1.800000E+00
 0.000000E+00  0.000000E+00  1.900000E+00
 1.000000E+00  0.000000E+00  1.900000E+00
 0.000000E+00  1.000000E+00  1.900000E+00
 1.000000E+00  1.000000E+00  1.900000E+00
 0.000000E+00  0.000000E+00  2.000000E+00
 1.000000E+00  0.000000E+00  2.000000E+00
 0.000000E+00  1.000000E+00  2.000000E+00
 1.000000E+00  1.000000E+00  2.000000E+00
 0.000000E+00  0.000000E+00  2.100000E+00
 1.000000E+00  0.000000E+00  2.100000E+00
 0.000000E+00  1.000000E+00  2.100000E+00
 1.000000E+00  1.000000E+00  2.100000E+00
 0.000000E+00  0.000000E+00  2.200000E+00
 1.000000E+00  0.000000E+00  2.200000E+00
 0.000000E+00  1.000000E+00  2.200000E+00
 1.000000E+00  1.000000E+00  2.200000E+00
 0.000000E+00  0.000000E+00  2.300000E+00
 1.000000E+00  0.000000E+00  2.300000E+00
 0.000000E+00  1.000000E+00  2.300000E+00
 1.000000E+00  1.000000E+00  2.300000E+00
 0.000000E+00  0.000000E+00  2.400000E+00
 1.000000E+00  0.000000E+00  2.400000E+00
 0.000000E+00  1.000000E+00  2.400000E+00
 1.000000E+00  1.000000E+00  2.400000E+00
 0.000000E+00  0.000000E+00  2.500000E+00
 1.000000E+00  0.000000E+00  2.500000E+00
 0.000000E+00  1.000000E+00  2.500000E+00
 1.000000E+00  1.000000E+00  2.500000E+00
 0.000000E+00  0.000000E+00  2.600000E+00
 1.000000E+00  0.000000E+00  2.600000E+00
 0.000000E+00  1.000000E+00  2.600000E+00
 1.000000E+00  1.000000E+00  2.600000E+00
 0.000000E+00  0.000000E+00  2.700000E+00
 1.000000E+00  0.000000E+00  2.700000E+00
 0.000000E+00  1.000000E+00  2.700000E+00
 1.000000E+00  1.000000E+00  2.700000E+00
 0.000000E+00  0.000000E+00  2.800000E+00
 1.000000E+00  0.000000E+00  2.800000E+00
 0.000000E+00  1.000000E+00  2.800000E+00
 1.000000E+00  1.000000E+00  2.800000E+00
 0.000000E+00  0.000000E+00  2.900000E+00
 1.000000E+00  0.000000E+00  2.900000E+00
 0.000000E+00  1.000000E+00  2.900000E+00
 1.000000E+00  1.000000E+00  2.900000E+00
 0.000000E+00  0.000000E+00  3.000000E+00
 1.000000E+00  0.000000E+00  3.000000E+00
 0.000000E+00  1.000000E+00  3.000000E+00
 1.000000E+00  1.000000E+00  3.000000E+00
 0.000000E+00  0.000000E+00  3.100000E+00
 1.000000E+00  0.000000E+00  3.100000E+00
 0.000000E+00  1.000000E+00  3.100000E+00
 1.000000E+00  1.000000E+00  3.100000E+00
 0.000000E+00  0.000000E+00  3.200000E+00
 1.000000E+00  0.000000E+00  3.200000E+00
 0.000000E+00  1.000000E+00  3.200000E+00
 1.000000E+00  1.000000E+00  3.200000E+00
 0.000000E+00  0.000000E+00  3.300000E+00
 1.000000E+00  0.000000E+00  3.300000E+00
 0.000000E+00  1.000000E+00  3.300000E+00
 1.000000E+00  1.000000E+00  3.300000E+00
 0.000000E+00  0.000000E+00  3.400000E+00
 1.000000E+00  0.000000E+00  3.400000E+00
 0.000000E+00  1.000000E+00  3.400000E+00
 1.000000E+00  1.000000E+00  3.400000E+00
 0.000000E+00  0.000000E+00  3.500000E+00
 1.000000E+00  0.000000E+00  3.500000E+00
 0.000000E+00  1.000000E+00  3.500000E+00
 1.000000E+00  1.000000E+00  3.500000E+00
 0.000000E+00  0.000000E+00  3.600000E+00
 1.000000E+00  0.000000E+00  3.600000E+00
 0.000000E+00  1.000000E+00  3.600000E+00
 1.000000E+00  1.000000E+00  3.600000E+00
 0.000000E+00  0.000000E+00  3.700000E+00
 1.000000E+00  0.000000E+00  3.700000E+00
 0.000000E+00  1.000000E+00  3.700000E+00
 1.000000E+00  1.000000E+00  3.700000E+00
 0.000000E+00  0.000000E+00  3.800000E+00
 1.000000E+00  0.000000E+00  3.800000E+00
 0.000000E+00  1.000000E+00  3.800000E+00
 1.000000E+00  1.000000E+00  3.800000E+00
 0.000000E+00  0.000000E+00  3.900000E+00
 1.000000E+00  0.000000E+00  3.900000E+00
 0.000000E+00  1.000000E+00  3.900000E+00
 1.000000E+00  1.000000E+00  3.900000E+00
 0.000000E+00  0.000000E+00  4.000000E+00
 1.000000E+00  0.000000E+00  4.000000E+00
 0.000000E+00  1.000000E+00  4.000000E+00
 1.000000E+00  1.000000E+00  4.000000E+00
 0.000000E+00  0.000000E+00  4.100000E+00
 1.000000E+00  0.000000E+00  4.100000E+00
 0.000000E+00  1.000000E+00  4.100000E+00
 1.000000E+00  1.000000E+00  4.100000E+00
 0.000000E+00  0.000000E+00  4.200000E+00
 1.000000E+00  0.000000E+00  4.200000E+00
 0.000000E+00  1.000000E+00  4.200000E+00
 1.000000E+00  1.000000E+00  4.200000E+00
 0.000000E+00  0.000000E+00  4.300000E+00
 1.000000E+00  0.000000E+00  4.300000E+00
 0.000000E+00  1.000000E+00  4.300000E+00
 1.000000E+00  1.000000E+00  4.300000E+00
 0.000000E+00  0.000000E+00  4.400000E+00
 1.000000E+00  0.000000E+00  4.400000E+00
 0.000000E+00  1.000000E+00  4.400000E+00
 1.000000E+00  1.000000E+00  4.400000E+00
 0.000000E+00  0.000000E+00  4.500000E+00
 1.000000E+00  0.000000E+00  4.500000E+00
 0.000000E+00  1.000000E+00  4.500000E+00
 1.000000E+00  1.000000E+00  4.500000E+00
 0.000000E+00  0.000000E+00  4.600000E+00
 1.000000E+00  0.000000E+00  4.600000E+00
 0.000000E+00  1.000000E+00  4.600000E+00
 1.000000E+00  1.000000E+00  4.600000E+00
 0.000000E+00  0.000000E+00  4.700000E+00
 1.000000E+00  0.000000E+00  4.700000E+00
 0.000000E+00  1.000000E+00  4.700000E+00
 1.000000E+00  1.000000E+00  4.700000E+00
 0.000000E+00  0.000000E+00  4.800000E+00
 1.000000E+00  0.000000E+00  4.800000E+00
 0.000000E+00  1.000000E+00  4.800000E+00
 1.000000E+00  1.000000E+00  4.800000E+00
 0.000000E+00  0.000000E+00  4.900000E+00
 1.000000E+00  0.000000E+00  4.900000E+00
 0.000000E+00  1.000000E+00  4.900000E+00
 1.000000E+00  1.000000E+00  4.900000E+00
 0.000000E+00  0.000000E+00  5.000000E+00
 1.000000E+00  0.000000E+00  5.000000E+00
 0.000000E+00  1.000000E+00  5.000000E+00
 1.000000E+00  1.000000E+00  5.000000E+00
 0.000000E+00  0.000000E+00  5.100000E+00
 1.000000E+00  0.000000E+00  5.100000E+00
 0.000000E+00  1.000000E+00  5.100000E+00
 1.000000E+00  1.000000E+00  5.100000E+00
 0.000000E+00  0.000000E+00  5.200000E+00
 1.000000E+00  0.000000E+00  5.200000E+00
 0.000000E+00  1.000000E+00  5.200000E+00
 1.000000E+00  1.000000E+00  5.200000E+00
 0.000000E+00  0.000000E+00  5.300000E+00
 1.000000E+00  0.000000E+00  5.300000E+00
 0.000000E+00  1.000000E+00  5.300000E+00
 1.000000E+00  1.000000E+00  5.300000E+00
 0.000000E+00  0.000000E+00  5.400000E+00
 1.000000E+00  0.000000E+00  5.400000E+00
 0.000000E+00  1.000000E+00  5.400000E+00
 1.000000E+00  1.000000E+00  5.400000E+00
 0.000000E+00  0.000000E+00  5.500000E+00
 1.000000E+00  0.000000E+00  5.500000E+00
 0.000000E+00  1.000000E+00  5.500000E+00
 1.000000E+00  1.000000E+00  5.500000E+00
 0.000000E+00  0.000000E+00  5.600000E+00
 1.000000E+00  0.000000E+00  5.600000E+00
 0.000000E+00  1.000000E+00  5.600000E+00
 1.000000E+00  1.000000E+00  5.600000E+00
 0.000000E+00  0.000000E+00  5.700000E+00
 1.000000E+00  0.000000E+00  5.700000E+00
 0.000000E+00  1.000000E+00  5.700000E+00
 1.000000E+00  1.000000E+00  5.700000E+00
 0.000000E+00  0.000000E+00  5.800000E+00
 1.000000E+00  0.000000E+00  5.800000E+00
 0.000000E+00  1.000000E+00  5.800000E+00
 1.000000E+00  1.000000E+00  5.800000E+00
 0.000000E+00  0.000000E+00  5.900000E+00
 1.000000E+00  0.000000E+00  5.900000E+00
 0.000000E+00  1.000000E+00  5.900000E+00
 1.000000E+00  1.000000E+00  5.900000E+00
 0.000000E+00  0.000000E+00  6.000000E+00
 1.000000E+00  0.000000E+00  6.000000E+00
 0.000000E+00  1.000000E+00  6.000000E+00
 1.000000E+00  1.000000E+00  6.000000E+00
 0.000000E+00  0.000000E+00  6.100000E+00
 1.000000E+00  0.000000E+00  6.100000E+00
 0.000000E+00  1.000000E+00  6.100000E+00
 1.000000E+00  1.000000E+00  6.100000E+00
 0.000000E+00  0.000000E+00  6.200000E+00
 1.000000E+00  0.000000E+00  6.200000E+00
 0.000000E+00  1.000000E+00  6.200000E+00
 1.000000E+00  1.000000E+00  6.200000E+00
 0.000000E+00  0.000000E+00  6.300000E+00
 1.000000E+00  0.000000E+00  6.300000E+00
 0.000000E+00  1.000000E+00  6.300000E+00
 1.000000E+00  1.000000E+00  6.300000E+00
 0.000000E+00  0.000000E+00  6.400000E+00
 1.000000E+00  0.000000E+00  6.400000E+00
 0.000000E+00  1.000000E+00  6.400000E+00
 1.000000E+00  1.000000E+00  6.400000E+00
 0.000000E+00  0.000000E+00  6.500000E+00
 1.000000E+00  0.000000E+00  6.500000E+00
 0.000000E+00  1.000000E+00  6.500000E+00
 1.000000E+00  1.000000E+00  6.500000E+00
 0.000000E+00  0.000000E+00  6.600000E+00
 1.000000E+00  0.000000E+00  6.600000E+00
 0.000000E+00  1.000000E+00  6.600000E+00
 1.000000E+00  1.000000E+00  6.600000E+00
 0.000000E+00  0.000000E+00  6.700000E+00
 1.000000E+00  0.000000E+00  6.700000E+00
 0.000000E+00  1.000000E+00  6.700000E+00
 1.000000E+00  1.000000E+00  6.700000E+00
 0.000000E+00  0.000000E+00  6.800000E+00
 1.000000E+00  0.000000E+00  6.800000E+00
 0.000000E+00  1.000000E+00  6.800000E+00
 1.000000E+00  1.000000E+00  6.800000E+00
 0.000000E+00  0.000000E+00  6.900000E+00
 1.000000E+00  0.000000E+00  6.900000E+00
 0.000000E+00  1.000000E+00  6.900000E+00
 1.000000E+00  1.000000E+00  6.900000E+00
 0.000000E+00  0.000000E+00  7.000000E+00
 1.000000E+00  0.000000E+00  7.000000E+00
 0.000000E+00  1.000000E+00  7.000000E+00
 1.000000E+00  1.000000E+00  7.000000E+00
 0.000000E+00  0.000000E+00  7.100000E+00
 1.000000E+00  0.000000E+00  7.100000E+00
 0.000000E+00  1.000000E+00  7.100000E+00
 1.000000E+00  1.000000E+00  7.100000E+00
 0.000000E+00  0.000000E+00  7.200000E+00
 1.000000E+00  0.000000E+00  7.200000E+00
 0.000000E+00  1.000000E+00  7.200000E+00
 1.000000E+00  1.000000E+00  7.200000E+00
 0.000000E+00  0.000000E+00  7.300000E+00
 1.000000E+00  0.000000E+00  7.300000E+00
 0.000000E+00  1.000000E+00  7.300000E+00
 1.000000E+00  1.000000E+00  7.300000E+00
 0.000000E+00  0.000000E+00  7.400000E+00
 1.000000E+00  0.000000E+00  7.400000E+00
 0.000000E+00  1.000000E+00  7.400000E+00
 1.000000E+00  1.000000E+00  7.400000E+00
 0.000000E+00  0.000000E+00  7.500000E+00
 1.000000E+00  0.000000E+00  7.500000E+00
 0.000000E+00  1.000000E+00  7.500000E+00
 1.000000E+00  1.000000E+00  7.500000E+00
 0.000000E+00  0.000000E+00  7.600000E+00
 1.000000E+00  0.000000E+00  7.600000E+00
 0.000000E+00  1.000000E+00  7.600000E+00
 1.000000E+00  1.000000E+00  7.600000E+00
 0.000000E+00  0.000000E+00  7.700000E+00
 1.000000E+00  0.000000E+00  7.700000E+00
 0.000000E+00  1.000000E+00  7.700000E+00
 1.000000E+00  1.000000E+00  7.700000E+00
 0.000000E+00  0.000000E+00  7.800000E+00
 1.000000E+00  0.000000E+00  7.800000E+00
 0.000000E+00  1.000000E+00  7.800000E+00
 1.000000E+00  1.000000E+00  7.800000E+00
 0.000000E+00  0.000000E+00  7.900000E+00
 1.000000E+00  0.000000E+00  7.900000E+00
 0.000000E+00  1.000000E+00  7.900000E+00
 1.000000E+00  1.000000E+00  7.900000E+00
 0.000000E+00  0.000000E+00  8.000000E+00
 1.000000E+00  0.000000E+00  8.000000E+00
 0.000000E+00  1.000000E+00  8.000000E+00
 1.000000E+00  1.000000E+00  8.000000E+00
 0.000000E+00  0.000000E+00  8.100000E+00
 1.000000E+00  0.000000E+00  8.100000E+00
 0.000000E+00  1.000000E+00  8.100000E+00
 1.000000E+00  1.000000E+00  8.100000E+00
 0.000000E+00  0.000000E+00  8.200000E+00
 1.000000E+00  0.000000E+00  8.200000E+00
 0.000000E+00  1.000000E+00  8.200000E+00
 1.000000E+00  1.000000E+00  8.200000E+00
 0.000000E+00  0.000000E+00  8.300000E+00
 1.000000E+00  0.000000E+00  8.300000E+00
 0.000000E+00  1.000000E+00  8.300000E+00
 1.000000E+00  1.000000E+00  8.300000E+00
 0.000000E+00  0.000000E+00  8.400000E+00
 1.000000E+00  0.000000E+00  8.400000E+00
 0.000000E+00  1.000000E+00  8.400000E+00
 1.000000E+00  1.000000E+00  8.400000E+00
 0.000000E+00  0.000000E+00  8.500000E+00
 1.000000E+00  0.000000E+00  8.500000E+00
 0.000000E+00  1.000000E+00  8.500000E+00
 1.000000E+00  1.000000E+00  8.500000E+00
 0.000000E+00  0.000000E+00  8.600000E+00
 1.000000E+00  0.000000E+00  8.600000E+00
 0.000000E+00  1.000000E+00  8.600000E+00
 1.000000E+00  1.000000E+00  8.600000E+00
 0.000000E+00  0.000000E+00  8.700000E+00
 1.000000E+00  0.000000E+00  8.700000E+00
 0.000000E+00  1.000000E+00  8.700000E+00
 1.000000E+00  1.000000E+00  8.700000E+00
 0.000000E+00  0.000000E+00  8.800000E+00
 1.000000E+00  0.000000E+00  8.800000E+00
 0.000000E+00  1.000000E+00  8.800000E+00
 1.000000E+00  1.000000E+00  8.800000E+00
 0.000000E+00  0.000000E+00  8.900000E+00
 1.000000E+00  0.000000E+00  8.900000E+00
 0.000000E+00  1.000000E+00  8.900000E+00
 1.000000E+00  1.000000E+00  8.900000E+00
 0.000000E+00  0.000000E+00  9.000000E+00
 1.000000E+00  0.000000E+00  9.000000E+00
 0.000000E+00  1.000000E+00  9.000000E+00
 1.000000E+00  1.000000E+00  9.000000E+00
 0.000000E+00  0.000000E+00  9.100000E+00
 1.000000E+00  0.000000E+00  9.100000E+00
 0.000000E+00  1.000000E+00  9.100000E+00
 1.000000E+00  1.000000E+00  9.100000E+00
 0.000000E+00  0.000000E+00  9.200000E+00
 1.000000E+00  0.000000E+00  9.200000E+00
 0.000000E+00  1.000000E+00  9.200000E+00
 1.000000E+00  1.000000E+00  9.200000E+00
 0.000000E+00  0.000000E+00  9.300000E+00
 1.000000E+00  0.000000E+00  9.300000E+00
 0.000000E+00  1.000000E+00  9.300000E+00
 1.000000E+00  1.000000E+00  9.300000E+00
 0.000000E+00  0.000000E+00  9.400000E+00
 1.000000E+00  0.000000E+00  9.400000E+00
 0.000000E+00  1.000000E+00  9.400000E+00
 1.000000E+00  1.000000E+00  9.400000E+00
 0.000000E+00  0.000000E+00  9.500000E+00
 1.000000E+00  0.000000E+00  9.500000E+00
 0.000000E+00  1.000000E+00  9.500000E+00
 1.000000E+00  1.000000E+00  9.500000E+00
 0.000000E+00  0.000000E+00  9.600000E+00
 1.000000E+00  0.000000E+00  9.600000E+00
 0.000000E+00  1.000000E+00  9.600000E+00
 1.000000E+00  1.000000E+00  9.600000E+00
 0.000000E+00  0.000000E+00  9.700000E+00
 1.000000E+00  0.000000E+00  9.700000E+00
 0.000000E+00  1.000000E+00  9.700000E+00
 1.000000E+00  1.000000E+00  9.700000E+00
 0.000000E+00  0.000000E+00  9.800000E+00
 1.000000E+00  0.000000E+00  9.800000E+00
 0.000000E+00  1.000000E+00  9.800000E+00
 1.000000E+00  1.000000E+00  9.800000E+00
 0.000000E+00  0.000000E+00  9.900000E+00
 1.000000E+00  0.000000E+00  9.900000E+00
 0.000000E+00  1.000000E+00  9.900000E+00
 1.000000E+00  1.000000E+00  9.900000E+00
 0.000000E+00  0.000000E+00  1.000000E+01
 1.000000E+00  0.000000E+00  1.000000E+01
 0.000000E+00  1.000000E+00  1.000000E+01
 1.000000E+00  1.000000E+00  1.000000E+01
CELLS          100          900
8        0        1        3        2        4        5        7        6
8        4        5        7        6        8        9       11       10
8        8        9       11       10       12       13       15       14
8       12       13       15       14       16       17       19       18
8       16       17       19       18       20       21       23       22
8       20       21       23       22       24       25       27       26
8       24       25       27       26       28       29       31       30
8       28       29       31       30       32       33       35       34
8       32       33       35       34       36       37       39       38
8       36       37       39       38       40       41       43       42
8       40       41       43       42       44       45       47       46
8       44       45       47       46       48       49       51       50
8       48       49       51       50       52       53       55       54
8       52       53       55       54       56       57       59       58
8       56       57       59       58       60       61       63       62
8       60       61       63       62       64       65       67       66
8       64       65       67       66       68       69       71       70
8       68       69       71       70       72       73       75       74
8       72       73       75       74       76       77       79       78
8       76       77       79       78       80       81       83       82
8       80       81       83       82       84       85       87       86
8       84       85       87       86       88       89       91       90
8       88       89       91       90       92       93       95       94
8       92       93       95       94       96       97       99       98
8       96       97       99       98      100      101      103      102
8      100      101      103      102      104      105      107      106
8      104      105      107      106      108      109      111      110
8      108      109      111      110      112      113      115      114
8      112      113      115      114      116      117      119      118
8      116      117      119      118      120      121      123      122
8      120      121      123      122      124      125      127      126
8      124      125      127      126      128      129      131      130
8      128      129      131      130      132      133      135      134
8      132      133      135      134      136      137      139      138
8      136      137      139      138      140      141      143      142
8      140      141      143      142      144      145      147      146
8      144      145      147      146      148      149      151      150
8      148      149      151      150      152      153      155      154
8      152      153      155      154      156      157      159      158
8      156      157      159      158      160      161      163      162
8      160      161      163      162      164      165      167      166
8      164      165      167      166      168      169      171      170
8      168      169      171      170      172      173      175      174
8      172      173      175      174      176      177      179      178
8      176      177      179      178      180      181      183      182
8      180      181      183      182      184      185      187      186
8      184      185      187      186      188      189      191      190
8      188      189      191      190      192      193      195      194
8      192      193      195      194      196      197      199      198
8      196      197      199      198      200      201      203      202
8      200      201      203      202      204      205      207      206
8      204      205      207      206      208      209      211      210
8      208      209      211      210      212      213      215      214
8      212      213      215      214      216      217      219      218
8      216      217      219      218      220      221      223      222
8      220      221      223      222      224      225      227      226
8      224      225      227      226      228      229      231      230
8      228      229      231      230      232      233      235      234
8      232      233      235      234      236      237      239      238
8      236      237      239      238      240      241      243      242
8      240      241      243      242      244      245      247      246
8      244      245      247      246      248      249      251      250
8      248      249      251      250      252      253      255      254
8      252      253      255      254      256      257      259      258
8      256      257      259      258      260      261      263      262
8      260      261      263      262      264      265      267      266
8      264      265      267      266      268      269      271      270
8      268      269      271      270      272      273      275      274
8      272      273      275      274      276      277      279      278
8      276      277      279      278      280      281      283      282
8      280      281      283      282      284      285      287      286
8      284      285      287      286      288      289      291      290
8      288      289      291      290      292      293      295      294
8      292      293      295      294      296      297      299      298
8      296      297      299      298      300      301      303      302
8      300      301      303      302      304      305      307      306
8      304      305      307      306      308      309      311      310
8      308      309      311      310      312      313      315      314
8      312      313      315      314      316      317      319      318
8      316      317      319      318      320      321      323      322
8      320      321      323      322      324      325      327      326
8      324      325      327      326      328      329      331      330
8      328      329      331      330      332      333      335      334
8      332      333      335      334      336      337      339      338
8      336      337      339      338      340      341      343      342
8      340      341      343      342      344      345      347      346
8      344      345      347      346      348      349      351      350
8      348      349      351      350      352      353      355      354
8      352      353      355      354      356      357      359      358
8      356      357      359      358      360      361      363      362
8      360      361      363      362      364      365      367      366
8      364      365      367      366      368      369      371      370
8      368      369      371      370      372      373      375      374
8      372      373      375      374      376      377      379      378
8      376      377      379      378      380      381      383      382
8      380      381      383      382      384      385      387      386
8      384      385      387      386      388      389      391      390
8      388      389      391      390      392      393      395      394
8      392      393      395      394      396      397      399      398
8      396      397      399      398      400      401      403      402

CELL_TYPES          100
12
12
12
12
12
12
12
12
12
12
12
12
12
12
12
12
12
12
12
12
12
12
12
12
12
12
12
12
12
12
12
12
12
12
12
12
12
12
12
12
12
12
12
12
12
12
12
12
12
12
12
12
12
12
12
12
12
12
12
12
12
12
12
12
12
12
12
12
12
12
12
12
12
12
12
12
12
12
12
12
12
12
12
12
12
12
12
12
12
12
12
12
12
12
12
12
12
12
12
12

CELL_DATA     100
SCALARS Liquid_Pressure      float 1
LOOKUP_TABLE default
 1.106150E+05  1.096371E+05  1.086592E+05  1.076813E+05  1.067034E+05  1.057255E+05  1.047476E+05  1.037697E+05  1.027918E+05  1.018139E+05
 1.008361E+05  9.985816E+04  9.888026E+04  9.790237E+04  9.692447E+04  9.594658E+04  9.496868E+04  9.399079E+04  9.301289E+04  9.203500E+04
 9.105710E+04  9.007921E+04  8.910131E+04  8.812342E+04  8.714553E+04  8.616763E+04  8.518974E+04  8.421185E+04  8.323395E+04  8.225606E+04
 8.127817E+04  8.030028E+04  7.932239E+04  7.834450E+04  7.736662E+04  7.638873E+04  7.541085E+04  7.443296E+04  7.345508E+04  7.247720E+04
 7.149932E+04  7.052144E+04  6.954356E+04  6.856568E+04  6.758780E+04  6.660992E+04  6.563205E+04  6.465417E+04  6.367630E+04  6.269842E+04
 6.172055E+04  6.074267E+04  5.976480E+04  5.878692E+04  5.780905E+04  5.683118E+04  5.585330E+04  5.487543E+04  5.389756E+04  5.291968E+04
 5.194181E+04  5.096394E+04  4.998607E+04  4.900820E+04  4.803033E+04  4.705246E+04  4.607459E+04  4.509672E+04  4.411885E+04  4.314098E+04
 4.216311E+04  4.118524E+04  4.020737E+04  3.922951E+04  3.825164E+04  3.727377E+04  3.629591E+04  3.531804E+04  3.434017E+04  3.336231E+04
 3.238444E+04  3.140658E+04  3.042872E+04  2.945086E+04  2.847301E+04  2.749517E+04  2.651737E+04  2.553964E+04  2.456209E+04  2.358493E+04
 2.260864E+04  2.163426E+04  2.066392E+04  1.970189E+04  1.875629E+04  1.784157E+04  1.698136E+04  1.620987E+04  1.556885E+04  1.509702E+04


SCALARS Liquid_Saturation    float 1
LOOKUP_TABLE default
 1.000000E+00  1.000000E+00  1.000000E+00  1.000000E+00  1.000000E+00  1.000000E+00  1.000000E+00  1.000000E+00  1.000000E+00  1.000000E+00
 9.989261E-01  9.904712E-01  9.742532E-01  9.515064E-01  9.237675E-01  8.926288E-01  8.595470E-01  8.257340E-01  7.921211E-01  7.593731E-01
 7.279295E-01  6.980524E-01  6.698731E-01  6.434306E-01  6.187018E-01  5.956246E-01  5.741134E-01  5.540708E-01  5.353948E-01  5.179837E-01
 5.017396E-01  4.865693E-01  4.723861E-01  4.591096E-01  4.466660E-01  4.349877E-01  4.240129E-01  4.136856E-01  4.039548E-01  3.947738E-01
 3.861007E-01  3.778970E-01  3.701278E-01  3.627613E-01  3.557687E-01  3.491234E-01  3.428014E-01  3.367806E-01  3.310409E-01  3.255637E-01
 3.203321E-01  3.153304E-01  3.105443E-01  3.059606E-01  3.015670E-01  2.973523E-01  2.933060E-01  2.894186E-01  2.856810E-01  2.820850E-01
 2.786228E-01  2.752873E-01  2.720717E-01  2.689698E-01  2.659759E-01  2.630845E-01  2.602904E-01  2.575890E-01  2.549757E-01  2.524465E-01
 2.499973E-01  2.476245E-01  2.453246E-01  2.430944E-01  2.409307E-01  2.388307E-01  2.367917E-01  2.348109E-01  2.328861E-01  2.310150E-01
 2.291952E-01  2.274248E-01  2.257017E-01  2.240242E-01  2.223905E-01  2.207989E-01  2.192479E-01  2.177359E-01  2.162618E-01  2.148243E-01
 2.134230E-01  2.120578E-01  2.107303E-01  2.094446E-01  2.082094E-01  2.070406E-01  2.059641E-01  2.050168E-01  2.042424E-01  2.036796E-01


SCALARS Material_ID          int 1
LOOKUP_TABLE default
  1
  1
  1
  1
  1
  1
  1
  1
  1
  1
  1
  1
  1
  1
  1
  1
  1
  1
  1
  1
  1
  1
  1
  1
  1
  1
  1
  1
  1
  1
  1
  1
  1
  1
  1
  1
  1
  1
  1
  1
  1
  1
  1
  1
  1
  1
  1
  1
  1
  1
  1
  1
  1
  1
  1
  1
  1
  1
  1
  1
  1
  1
  1
  1
  1
  1
  1
  1
  1
  1
  1
  1
  1
  1
  1
  1
  1
  1
  1
  1
  1
  1
  1
  1
  1
  1
  1
  1
  1
  1
  1
  1
  1
  1
  1
  1
  1
  1
  1
  1


