TITLE = "  1.00000E+01 [d]"
VARIABLES="X [m]","Y [m]","Z [m]","Liquid Pressure [Pa]","Liquid Saturation","Material ID"
ZONE T="1.00000E+01", I=2, J=2, K=101, VARLOCATION=([4-6]=CELLCENTERED), DATAPACKING=BLOCK
 0.000000E+00  1.000000E+00  0.000000E+00  1.000000E+00  0.000000E+00  1.000000E+00  0.000000E+00  1.000000E+00  0.000000E+00  1.000000E+00 
 0.000000E+00  1.000000E+00  0.000000E+00  1.000000E+00  0.000000E+00  1.000000E+00  0.000000E+00  1.000000E+00  0.000000E+00  1.000000E+00 
 0.000000E+00  1.000000E+00  0.000000E+00  1.000000E+00  0.000000E+00  1.000000E+00  0.000000E+00  1.000000E+00  0.000000E+00  1.000000E+00 
 0.000000E+00  1.000000E+00  0.000000E+00  1.000000E+00  0.000000E+00  1.000000E+00  0.000000E+00  1.000000E+00  0.000000E+00  1.000000E+00 
 0.000000E+00  1.000000E+00  0.000000E+00  1.000000E+00  0.000000E+00  1.000000E+00  0.000000E+00  1.000000E+00  0.000000E+00  1.000000E+00 
 0.000000E+00  1.000000E+00  0.000000E+00  1.000000E+00  0.000000E+00  1.000000E+00  0.000000E+00  1.000000E+00  0.000000E+00  1.000000E+00 
 0.000000E+00  1.000000E+00  0.000000E+00  1.000000E+00  0.000000E+00  1.000000E+00  0.000000E+00  1.000000E+00  0.000000E+00  1.000000E+00 
 0.000000E+00  1.000000E+00  0.000000E+00  1.000000E+00  0.000000E+00  1.000000E+00  0.000000E+00  1.000000E+00  0.000000E+00  1.000000E+00 
 0.000000E+00  1.000000E+00  0.000000E+00  1.000000E+00  0.000000E+00  1.000000E+00  0.000000E+00  1.000000E+00  0.000000E+00  1.000000E+00 
 0.000000E+00  1.000000E+00  0.000000E+00  1.000000E+00  0.000000E+00  1.000000E+00  0.000000E+00  1.000000E+00  0.000000E+00  1.000000E+00 
 0.000000E+00  1.000000E+00  0.000000E+00  1.000000E+00  0.000000E+00  1.000000E+00  0.000000E+00  1.000000E+00  0.000000E+00  1.000000E+00 
 0.000000E+00  1.000000E+00  0.000000E+00  1.000000E+00  0.000000E+00  1.000000E+00  0.000000E+00  1.000000E+00  0.000000E+00  1.000000E+00 
 0.000000E+00  1.000000E+00  0.000000E+00  1.000000E+00  0.000000E+00  1.000000E+00  0.000000E+00  1.000000E+00  0.000000E+00  1.000000E+00 
 0.000000E+00  1.000000E+00  0.000000E+00  1.000000E+00  0.000000E+00  1.000000E+00  0.000000E+00  1.000000E+00  0.000000E+00  1.000000E+00 
 0.000000E+00  1.000000E+00  0.000000E+00  1.000000E+00  0.000000E+00  1.000000E+00  0.000000E+00  1.000000E+00  0.000000E+00  1.000000E+00 
 0.000000E+00  1.000000E+00  0.000000E+00  1.000000E+00  0.000000E+00  1.000000E+00  0.000000E+00  1.000000E+00  0.000000E+00  1.000000E+00 
 0.000000E+00  1.000000E+00  0.000000E+00  1.000000E+00  0.000000E+00  1.000000E+00  0.000000E+00  1.000000E+00  0.000000E+00  1.000000E+00 
 0.000000E+00  1.000000E+00  0.000000E+00  1.000000E+00  0.000000E+00  1.000000E+00  0.000000E+00  1.000000E+00  0.000000E+00  1.000000E+00 
 0.000000E+00  1.000000E+00  0.000000E+00  1.000000E+00  0.000000E+00  1.000000E+00  0.000000E+00  1.000000E+00  0.000000E+00  1.000000E+00 
 0.000000E+00  1.000000E+00  0.000000E+00  1.000000E+00  0.000000E+00  1.000000E+00  0.000000E+00  1.000000E+00  0.000000E+00  1.000000E+00 
 0.000000E+00  1.000000E+00  0.000000E+00  1.000000E+00  0.000000E+00  1.000000E+00  0.000000E+00  1.000000E+00  0.000000E+00  1.000000E+00 
 0.000000E+00  1.000000E+00  0.000000E+00  1.000000E+00  0.000000E+00  1.000000E+00  0.000000E+00  1.000000E+00  0.000000E+00  1.000000E+00 
 0.000000E+00  1.000000E+00  0.000000E+00  1.000000E+00  0.000000E+00  1.000000E+00  0.000000E+00  1.000000E+00  0.000000E+00  1.000000E+00 
 0.000000E+00  1.000000E+00  0.000000E+00  1.000000E+00  0.000000E+00  1.000000E+00  0.000000E+00  1.000000E+00  0.000000E+00  1.000000E+00 
 0.000000E+00  1.000000E+00  0.000000E+00  1.000000E+00  0.000000E+00  1.000000E+00  0.000000E+00  1.000000E+00  0.000000E+00  1.000000E+00 
 0.000000E+00  1.000000E+00  0.000000E+00  1.000000E+00  0.000000E+00  1.000000E+00  0.000000E+00  1.000000E+00  0.000000E+00  1.000000E+00 
 0.000000E+00  1.000000E+00  0.000000E+00  1.000000E+00  0.000000E+00  1.000000E+00  0.000000E+00  1.000000E+00  0.000000E+00  1.000000E+00 
 0.000000E+00  1.000000E+00  0.000000E+00  1.000000E+00  0.000000E+00  1.000000E+00  0.000000E+00  1.000000E+00  0.000000E+00  1.000000E+00 
 0.000000E+00  1.000000E+00  0.000000E+00  1.000000E+00  0.000000E+00  1.000000E+00  0.000000E+00  1.000000E+00  0.000000E+00  1.000000E+00 
 0.000000E+00  1.000000E+00  0.000000E+00  1.000000E+00  0.000000E+00  1.000000E+00  0.000000E+00  1.000000E+00  0.000000E+00  1.000000E+00 
 0.000000E+00  1.000000E+00  0.000000E+00  1.000000E+00  0.000000E+00  1.000000E+00  0.000000E+00  1.000000E+00  0.000000E+00  1.000000E+00 
 0.000000E+00  1.000000E+00  0.000000E+00  1.000000E+00  0.000000E+00  1.000000E+00  0.000000E+00  1.000000E+00  0.000000E+00  1.000000E+00 
 0.000000E+00  1.000000E+00  0.000000E+00  1.000000E+00  0.000000E+00  1.000000E+00  0.000000E+00  1.000000E+00  0.000000E+00  1.000000E+00 
 0.000000E+00  1.000000E+00  0.000000E+00  1.000000E+00  0.000000E+00  1.000000E+00  0.000000E+00  1.000000E+00  0.000000E+00  1.000000E+00 
 0.000000E+00  1.000000E+00  0.000000E+00  1.000000E+00  0.000000E+00  1.000000E+00  0.000000E+00  1.000000E+00  0.000000E+00  1.000000E+00 
 0.000000E+00  1.000000E+00  0.000000E+00  1.000000E+00  0.000000E+00  1.000000E+00  0.000000E+00  1.000000E+00  0.000000E+00  1.000000E+00 
 0.000000E+00  1.000000E+00  0.000000E+00  1.000000E+00  0.000000E+00  1.000000E+00  0.000000E+00  1.000000E+00  0.000000E+00  1.000000E+00 
 0.000000E+00  1.000000E+00  0.000000E+00  1.000000E+00  0.000000E+00  1.000000E+00  0.000000E+00  1.000000E+00  0.000000E+00  1.000000E+00 
 0.000000E+00  1.000000E+00  0.000000E+00  1.000000E+00  0.000000E+00  1.000000E+00  0.000000E+00  1.000000E+00  0.000000E+00  1.000000E+00 
 0.000000E+00  1.000000E+00  0.000000E+00  1.000000E+00  0.000000E+00  1.000000E+00  0.000000E+00  1.000000E+00  0.000000E+00  1.000000E+00 
 0.000000E+00  1.000000E+00  0.000000E+00  1.000000E+00 
 0.000000E+00  0.000000E+00  1.000000E+00  1.000000E+00  0.000000E+00  0.000000E+00  1.000000E+00  1.000000E+00  0.000000E+00  0.000000E+00 
 1.000000E+00  1.000000E+00  0.000000E+00  0.000000E+00  1.000000E+00  1.000000E+00  0.000000E+00  0.000000E+00  1.000000E+00  1.000000E+00 
 0.000000E+00  0.000000E+00  1.000000E+00  1.000000E+00  0.000000E+00  0.000000E+00  1.000000E+00  1.000000E+00  0.000000E+00  0.000000E+00 
 1.000000E+00  1.000000E+00  0.000000E+00  0.000000E+00  1.000000E+00  1.000000E+00  0.000000E+00  0.000000E+00  1.000000E+00  1.000000E+00 
 0.000000E+00  0.000000E+00  1.000000E+00  1.000000E+00  0.000000E+00  0.000000E+00  1.000000E+00  1.000000E+00  0.000000E+00  0.000000E+00 
 1.000000E+00  1.000000E+00  0.000000E+00  0.000000E+00  1.000000E+00  1.000000E+00  0.000000E+00  0.000000E+00  1.000000E+00  1.000000E+00 
 0.000000E+00  0.000000E+00  1.000000E+00  1.000000E+00  0.000000E+00  0.000000E+00  1.000000E+00  1.000000E+00  0.000000E+00  0.000000E+00 
 1.000000E+00  1.000000E+00  0.000000E+00  0.000000E+00  1.000000E+00  1.000000E+00  0.000000E+00  0.000000E+00  1.000000E+00  1.000000E+00 
 0.000000E+00  0.000000E+00  1.000000E+00  1.000000E+00  0.000000E+00  0.000000E+00  1.000000E+00  1.000000E+00  0.000000E+00  0.000000E+00 
 1.000000E+00  1.000000E+00  0.000000E+00  0.000000E+00  1.000000E+00  1.000000E+00  0.000000E+00  0.000000E+00  1.000000E+00  1.000000E+00 
 0.000000E+00  0.000000E+00  1.000000E+00  1.000000E+00  0.000000E+00  0.000000E+00  1.000000E+00  1.000000E+00  0.000000E+00  0.000000E+00 
 1.000000E+00  1.000000E+00  0.000000E+00  0.000000E+00  1.000000E+00  1.000000E+00  0.000000E+00  0.000000E+00  1.000000E+00  1.000000E+00 
 0.000000E+00  0.000000E+00  1.000000E+00  1.000000E+00  0.000000E+00  0.000000E+00  1.000000E+00  1.000000E+00  0.000000E+00  0.000000E+00 
 1.000000E+00  1.000000E+00  0.000000E+00  0.000000E+00  1.000000E+00  1.000000E+00  0.000000E+00  0.000000E+00  1.000000E+00  1.000000E+00 
 0.000000E+00  0.000000E+00  1.000000E+00  1.000000E+00  0.000000E+00  0.000000E+00  1.000000E+00  1.000000E+00  0.000000E+00  0.000000E+00 
 1.000000E+00  1.000000E+00  0.000000E+00  0.000000E+00  1.000000E+00  1.000000E+00  0.000000E+00  0.000000E+00  1.000000E+00  1.000000E+00 
 0.000000E+00  0.000000E+00  1.000000E+00  1.000000E+00  0.000000E+00  0.000000E+00  1.000000E+00  1.000000E+00  0.000000E+00  0.000000E+00 
 1.000000E+00  1.000000E+00  0.000000E+00  0.000000E+00  1.000000E+00  1.000000E+00  0.000000E+00  0.000000E+00  1.000000E+00  1.000000E+00 
 0.000000E+00  0.000000E+00  1.000000E+00  1.000000E+00  0.000000E+00  0.000000E+00  1.000000E+00  1.000000E+00  0.000000E+00  0.000000E+00 
 1.000000E+00  1.000000E+00  0.000000E+00  0.000000E+00  1.000000E+00  1.000000E+00  0.000000E+00  0.000000E+00  1.000000E+00  1.000000E+00 
 0.000000E+00  0.000000E+00  1.000000E+00  1.000000E+00  0.000000E+00  0.000000E+00  1.000000E+00  1.000000E+00  0.000000E+00  0.000000E+00 
 1.000000E+00  1.000000E+00  0.000000E+00  0.000000E+00  1.000000E+00  1.000000E+00  0.000000E+00  0.000000E+00  1.000000E+00  1.000000E+00 
 0.000000E+00  0.000000E+00  1.000000E+00  1.000000E+00  0.000000E+00  0.000000E+00  1.000000E+00  1.000000E+00  0.000000E+00  0.000000E+00 
 1.000000E+00  1.000000E+00  0.000000E+00  0.000000E+00  1.000000E+00  1.000000E+00  0.000000E+00  0.000000E+00  1.000000E+00  1.000000E+00 
 0.000000E+00  0.000000E+00  1.000000E+00  1.000000E+00  0.000000E+00  0.000000E+00  1.000000E+00  1.000000E+00  0.000000E+00  0.000000E+00 
 1.000000E+00  1.000000E+00  0.000000E+00  0.000000E+00  1.000000E+00  1.000000E+00  0.000000E+00  0.000000E+00  1.000000E+00  1.000000E+00 
 0.000000E+00  0.000000E+00  1.000000E+00  1.000000E+00  0.000000E+00  0.000000E+00  1.000000E+00  1.000000E+00  0.000000E+00  0.000000E+00 
 1.000000E+00  1.000000E+00  0.000000E+00  0.000000E+00  1.000000E+00  1.000000E+00  0.000000E+00  0.000000E+00  1.000000E+00  1.000000E+00 
 0.000000E+00  0.000000E+00  1.000000E+00  1.000000E+00  0.000000E+00  0.000000E+00  1.000000E+00  1.000000E+00  0.000000E+00  0.000000E+00 
 1.000000E+00  1.000000E+00  0.000000E+00  0.000000E+00  1.000000E+00  1.000000E+00  0.000000E+00  0.000000E+00  1.000000E+00  1.000000E+00 
 0.000000E+00  0.000000E+00  1.000000E+00  1.000000E+00  0.000000E+00  0.000000E+00  1.000000E+00  1.000000E+00  0.000000E+00  0.000000E+00 
 1.000000E+00  1.000000E+00  0.000000E+00  0.000000E+00  1.000000E+00  1.000000E+00  0.000000E+00  0.000000E+00  1.000000E+00  1.000000E+00 
 0.000000E+00  0.000000E+00  1.000000E+00  1.000000E+00  0.000000E+00  0.000000E+00  1.000000E+00  1.000000E+00  0.000000E+00  0.000000E+00 
 1.000000E+00  1.000000E+00  0.000000E+00  0.000000E+00  1.000000E+00  1.000000E+00  0.000000E+00  0.000000E+00  1.000000E+00  1.000000E+00 
 0.000000E+00  0.000000E+00  1.000000E+00  1.000000E+00  0.000000E+00  0.000000E+00  1.000000E+00  1.000000E+00  0.000000E+00  0.000000E+00 
 1.000000E+00  1.000000E+00  0.000000E+00  0.000000E+00  1.000000E+00  1.000000E+00  0.000000E+00  0.000000E+00  1.000000E+00  1.000000E+00 
 0.000000E+00  0.000000E+00  1.000000E+00  1.000000E+00  0.000000E+00  0.000000E+00  1.000000E+00  1.000000E+00  0.000000E+00  0.000000E+00 
 1.000000E+00  1.000000E+00  0.000000E+00  0.000000E+00  1.000000E+00  1.000000E+00  0.000000E+00  0.000000E+00  1.000000E+00  1.000000E+00 
 0.000000E+00  0.000000E+00  1.000000E+00  1.000000E+00  0.000000E+00  0.000000E+00  1.000000E+00  1.000000E+00  0.000000E+00  0.000000E+00 
 1.000000E+00  1.000000E+00  0.000000E+00  0.000000E+00  1.000000E+00  1.000000E+00  0.000000E+00  0.000000E+00  1.000000E+00  1.000000E+00 
 0.000000E+00  0.000000E+00  1.000000E+00  1.000000E+00 
 0.000000E+00  0.000000E+00  0.000000E+00  0.000000E+00  1.000000E-01  1.000000E-01  1.000000E-01  1.000000E-01  2.000000E-01  2.000000E-01 
 2.000000E-01  2.000000E-01  3.000000E-01  3.000000E-01  3.000000E-01  3.000000E-01  4.000000E-01  4.000000E-01  4.000000E-01  4.000000E-01 
 5.000000E-01  5.000000E-01  5.000000E-01  5.000000E-01  6.000000E-01  6.000000E-01  6.000000E-01  6.000000E-01  7.000000E-01  7.000000E-01 
 7.000000E-01  7.000000E-01  8.000000E-01  8.000000E-01  8.000000E-01  8.000000E-01  9.000000E-01  9.000000E-01  9.000000E-01  9.000000E-01 
 1.000000E+00  1.000000E+00  1.000000E+00  1.000000E+00  1.100000E+00  1.100000E+00  1.100000E+00  1.100000E+00  1.200000E+00  1.200000E+00 
 1.200000E+00  1.200000E+00  1.300000E+00  1.300000E+00  1.300000E+00  1.300000E+00  1.400000E+00  1.400000E+00  1.400000E+00  1.400000E+00 
 1.500000E+00  1.500000E+00  1.500000E+00  1.500000E+00  1.600000E+00  1.600000E+00  1.600000E+00  1.600000E+00  1.700000E+00  1.700000E+00 
 1.700000E+00  1.700000E+00  1.800000E+00  1.800000E+00  1.800000E+00  1.800000E+00  1.900000E+00  1.900000E+00  1.900000E+00  1.900000E+00 
 2.000000E+00  2.000000E+00  2.000000E+00  2.000000E+00  2.100000E+00  2.100000E+00  2.100000E+00  2.100000E+00  2.200000E+00  2.200000E+00 
 2.200000E+00  2.200000E+00  2.300000E+00  2.300000E+00  2.300000E+00  2.300000E+00  2.400000E+00  2.400000E+00  2.400000E+00  2.400000E+00 
 2.500000E+00  2.500000E+00  2.500000E+00  2.500000E+00  2.600000E+00  2.600000E+00  2.600000E+00  2.600000E+00  2.700000E+00  2.700000E+00 
 2.700000E+00  2.700000E+00  2.800000E+00  2.800000E+00  2.800000E+00  2.800000E+00  2.900000E+00  2.900000E+00  2.900000E+00  2.900000E+00 
 3.000000E+00  3.000000E+00  3.000000E+00  3.000000E+00  3.100000E+00  3.100000E+00  3.100000E+00  3.100000E+00  3.200000E+00  3.200000E+00 
 3.200000E+00  3.200000E+00  3.300000E+00  3.300000E+00  3.300000E+00  3.300000E+00  3.400000E+00  3.400000E+00  3.400000E+00  3.400000E+00 
 3.500000E+00  3.500000E+00  3.500000E+00  3.500000E+00  3.600000E+00  3.600000E+00  3.600000E+00  3.600000E+00  3.700000E+00  3.700000E+00 
 3.700000E+00  3.700000E+00  3.800000E+00  3.800000E+00  3.800000E+00  3.800000E+00  3.900000E+00  3.900000E+00  3.900000E+00  3.900000E+00 
 4.000000E+00  4.000000E+00  4.000000E+00  4.000000E+00  4.100000E+00  4.100000E+00  4.100000E+00  4.100000E+00  4.200000E+00  4.200000E+00 
 4.200000E+00  4.200000E+00  4.300000E+00  4.300000E+00  4.300000E+00  4.300000E+00  4.400000E+00  4.400000E+00  4.400000E+00  4.400000E+00 
 4.500000E+00  4.500000E+00  4.500000E+00  4.500000E+00  4.600000E+00  4.600000E+00  4.600000E+00  4.600000E+00  4.700000E+00  4.700000E+00 
 4.700000E+00  4.700000E+00  4.800000E+00  4.800000E+00  4.800000E+00  4.800000E+00  4.900000E+00  4.900000E+00  4.900000E+00  4.900000E+00 
 5.000000E+00  5.000000E+00  5.000000E+00  5.000000E+00  5.100000E+00  5.100000E+00  5.100000E+00  5.100000E+00  5.200000E+00  5.200000E+00 
 5.200000E+00  5.200000E+00  5.300000E+00  5.300000E+00  5.300000E+00  5.300000E+00  5.400000E+00  5.400000E+00  5.400000E+00  5.400000E+00 
 5.500000E+00  5.500000E+00  5.500000E+00  5.500000E+00  5.600000E+00  5.600000E+00  5.600000E+00  5.600000E+00  5.700000E+00  5.700000E+00 
 5.700000E+00  5.700000E+00  5.800000E+00  5.800000E+00  5.800000E+00  5.800000E+00  5.900000E+00  5.900000E+00  5.900000E+00  5.900000E+00 
 6.000000E+00  6.000000E+00  6.000000E+00  6.000000E+00  6.100000E+00  6.100000E+00  6.100000E+00  6.100000E+00  6.200000E+00  6.200000E+00 
 6.200000E+00  6.200000E+00  6.300000E+00  6.300000E+00  6.300000E+00  6.300000E+00  6.400000E+00  6.400000E+00  6.400000E+00  6.400000E+00 
 6.500000E+00  6.500000E+00  6.500000E+00  6.500000E+00  6.600000E+00  6.600000E+00  6.600000E+00  6.600000E+00  6.700000E+00  6.700000E+00 
 6.700000E+00  6.700000E+00  6.800000E+00  6.800000E+00  6.800000E+00  6.800000E+00  6.900000E+00  6.900000E+00  6.900000E+00  6.900000E+00 
 7.000000E+00  7.000000E+00  7.000000E+00  7.000000E+00  7.100000E+00  7.100000E+00  7.100000E+00  7.100000E+00  7.200000E+00  7.200000E+00 
 7.200000E+00  7.200000E+00  7.300000E+00  7.300000E+00  7.300000E+00  7.300000E+00  7.400000E+00  7.400000E+00  7.400000E+00  7.400000E+00 
 7.500000E+00  7.500000E+00  7.500000E+00  7.500000E+00  7.600000E+00  7.600000E+00  7.600000E+00  7.600000E+00  7.700000E+00  7.700000E+00 
 7.700000E+00  7.700000E+00  7.800000E+00  7.800000E+00  7.800000E+00  7.800000E+00  7.900000E+00  7.900000E+00  7.900000E+00  7.900000E+00 
 8.000000E+00  8.000000E+00  8.000000E+00  8.000000E+00  8.100000E+00  8.100000E+00  8.100000E+00  8.100000E+00  8.200000E+00  8.200000E+00 
 8.200000E+00  8.200000E+00  8.300000E+00  8.300000E+00  8.300000E+00  8.300000E+00  8.400000E+00  8.400000E+00  8.400000E+00  8.400000E+00 
 8.500000E+00  8.500000E+00  8.500000E+00  8.500000E+00  8.600000E+00  8.600000E+00  8.600000E+00  8.600000E+00  8.700000E+00  8.700000E+00 
 8.700000E+00  8.700000E+00  8.800000E+00  8.800000E+00  8.800000E+00  8.800000E+00  8.900000E+00  8.900000E+00  8.900000E+00  8.900000E+00 
 9.000000E+00  9.000000E+00  9.000000E+00  9.000000E+00  9.100000E+00  9.100000E+00  9.100000E+00  9.100000E+00  9.200000E+00  9.200000E+00 
 9.200000E+00  9.200000E+00  9.300000E+00  9.300000E+00  9.300000E+00  9.300000E+00  9.400000E+00  9.400000E+00  9.400000E+00  9.400000E+00 
 9.500000E+00  9.500000E+00  9.500000E+00  9.500000E+00  9.600000E+00  9.600000E+00  9.600000E+00  9.600000E+00  9.700000E+00  9.700000E+00 
 9.700000E+00  9.700000E+00  9.800000E+00  9.800000E+00  9.800000E+00  9.800000E+00  9.900000E+00  9.900000E+00  9.900000E+00  9.900000E+00 
 1.000000E+01  1.000000E+01  1.000000E+01  1.000000E+01 
 1.106150E+05  1.096371E+05  1.086592E+05  1.076813E+05  1.067034E+05  1.057255E+05  1.047476E+05  1.037697E+05  1.027918E+05  1.018139E+05
 1.008361E+05  9.985816E+04  9.888026E+04  9.790237E+04  9.692447E+04  9.594658E+04  9.496868E+04  9.399079E+04  9.301289E+04  9.203500E+04
 9.105710E+04  9.007921E+04  8.910131E+04  8.812342E+04  8.714552E+04  8.616763E+04  8.518974E+04  8.421185E+04  8.323395E+04  8.225606E+04
 8.127817E+04  8.030028E+04  7.932239E+04  7.834450E+04  7.736661E+04  7.638873E+04  7.541084E+04  7.443296E+04  7.345507E+04  7.247719E+04
 7.149931E+04  7.052143E+04  6.954355E+04  6.856567E+04  6.758779E+04  6.660992E+04  6.563204E+04  6.465416E+04  6.367629E+04  6.269841E+04
 6.172054E+04  6.074267E+04  5.976479E+04  5.878692E+04  5.780904E+04  5.683117E+04  5.585330E+04  5.487543E+04  5.389755E+04  5.291968E+04
 5.194181E+04  5.096394E+04  4.998607E+04  4.900820E+04  4.803032E+04  4.705245E+04  4.607458E+04  4.509671E+04  4.411884E+04  4.314098E+04
 4.216311E+04  4.118524E+04  4.020737E+04  3.922950E+04  3.825164E+04  3.727377E+04  3.629590E+04  3.531804E+04  3.434017E+04  3.336231E+04
 3.238444E+04  3.140658E+04  3.042872E+04  2.945087E+04  2.847302E+04  2.749521E+04  2.651744E+04  2.553980E+04  2.456243E+04  2.358563E+04
 2.261007E+04  2.163706E+04  2.066926E+04  1.971166E+04  1.877334E+04  1.786961E+04  1.702419E+04  1.626967E+04  1.564383E+04  1.518000E+04
 1.000000E+00  1.000000E+00  1.000000E+00  1.000000E+00  1.000000E+00  1.000000E+00  1.000000E+00  1.000000E+00  1.000000E+00  1.000000E+00
 9.989261E-01  9.904712E-01  9.742532E-01  9.515064E-01  9.237675E-01  8.926288E-01  8.595470E-01  8.257340E-01  7.921211E-01  7.593731E-01
 7.279295E-01  6.980524E-01  6.698731E-01  6.434306E-01  6.187018E-01  5.956246E-01  5.741134E-01  5.540708E-01  5.353947E-01  5.179837E-01
 5.017395E-01  4.865692E-01  4.723860E-01  4.591096E-01  4.466660E-01  4.349876E-01  4.240129E-01  4.136856E-01  4.039547E-01  3.947738E-01
 3.861007E-01  3.778969E-01  3.701277E-01  3.627613E-01  3.557686E-01  3.491234E-01  3.428014E-01  3.367806E-01  3.310409E-01  3.255637E-01
 3.203321E-01  3.153304E-01  3.105443E-01  3.059605E-01  3.015669E-01  2.973523E-01  2.933060E-01  2.894186E-01  2.856810E-01  2.820850E-01
 2.786228E-01  2.752872E-01  2.720717E-01  2.689698E-01  2.659759E-01  2.630844E-01  2.602904E-01  2.575890E-01  2.549757E-01  2.524465E-01
 2.499973E-01  2.476245E-01  2.453246E-01  2.430944E-01  2.409307E-01  2.388307E-01  2.367916E-01  2.348109E-01  2.328861E-01  2.310150E-01
 2.291952E-01  2.274248E-01  2.257017E-01  2.240242E-01  2.223905E-01  2.207990E-01  2.192480E-01  2.177362E-01  2.162623E-01  2.148254E-01
 2.134250E-01  2.120616E-01  2.107375E-01  2.094575E-01  2.082314E-01  2.070761E-01  2.060172E-01  2.050897E-01  2.043324E-01  2.037781E-01
 1  1  1  1  1  1  1  1  1  1
 1  1  1  1  1  1  1  1  1  1
 1  1  1  1  1  1  1  1  1  1
 1  1  1  1  1  1  1  1  1  1
 1  1  1  1  1  1  1  1  1  1
 1  1  1  1  1  1  1  1  1  1
 1  1  1  1  1  1  1  1  1  1
 1  1  1  1  1  1  1  1  1  1
 1  1  1  1  1  1  1  1  1  1
 1  1  1  1  1  1  1  1  1  1
