TITLE = "  6.00000E+00 [d]"
VARIABLES="X [m]","Y [m]","Z [m]","Liquid Pressure [Pa]","Liquid Saturation","Material ID"
ZONE T="6.00000E+00", I=2, J=2, K=101, VARLOCATION=([4-6]=CELLCENTERED), DATAPACKING=BLOCK
 0.000000E+00  1.000000E+00  0.000000E+00  1.000000E+00  0.000000E+00  1.000000E+00  0.000000E+00  1.000000E+00  0.000000E+00  1.000000E+00 
 0.000000E+00  1.000000E+00  0.000000E+00  1.000000E+00  0.000000E+00  1.000000E+00  0.000000E+00  1.000000E+00  0.000000E+00  1.000000E+00 
 0.000000E+00  1.000000E+00  0.000000E+00  1.000000E+00  0.000000E+00  1.000000E+00  0.000000E+00  1.000000E+00  0.000000E+00  1.000000E+00 
 0.000000E+00  1.000000E+00  0.000000E+00  1.000000E+00  0.000000E+00  1.000000E+00  0.000000E+00  1.000000E+00  0.000000E+00  1.000000E+00 
 0.000000E+00  1.000000E+00  0.000000E+00  1.000000E+00  0.000000E+00  1.000000E+00  0.000000E+00  1.000000E+00  0.000000E+00  1.000000E+00 
 0.000000E+00  1.000000E+00  0.000000E+00  1.000000E+00  0.000000E+00  1.000000E+00  0.000000E+00  1.000000E+00  0.000000E+00  1.000000E+00 
 0.000000E+00  1.000000E+00  0.000000E+00  1.000000E+00  0.000000E+00  1.000000E+00  0.000000E+00  1.000000E+00  0.000000E+00  1.000000E+00 
 0.000000E+00  1.000000E+00  0.000000E+00  1.000000E+00  0.000000E+00  1.000000E+00  0.000000E+00  1.000000E+00  0.000000E+00  1.000000E+00 
 0.000000E+00  1.000000E+00  0.000000E+00  1.000000E+00  0.000000E+00  1.000000E+00  0.000000E+00  1.000000E+00  0.000000E+00  1.000000E+00 
 0.000000E+00  1.000000E+00  0.000000E+00  1.000000E+00  0.000000E+00  1.000000E+00  0.000000E+00  1.000000E+00  0.000000E+00  1.000000E+00 
 0.000000E+00  1.000000E+00  0.000000E+00  1.000000E+00  0.000000E+00  1.000000E+00  0.000000E+00  1.000000E+00  0.000000E+00  1.000000E+00 
 0.000000E+00  1.000000E+00  0.000000E+00  1.000000E+00  0.000000E+00  1.000000E+00  0.000000E+00  1.000000E+00  0.000000E+00  1.000000E+00 
 0.000000E+00  1.000000E+00  0.000000E+00  1.000000E+00  0.000000E+00  1.000000E+00  0.000000E+00  1.000000E+00  0.000000E+00  1.000000E+00 
 0.000000E+00  1.000000E+00  0.000000E+00  1.000000E+00  0.000000E+00  1.000000E+00  0.000000E+00  1.000000E+00  0.000000E+00  1.000000E+00 
 0.000000E+00  1.000000E+00  0.000000E+00  1.000000E+00  0.000000E+00  1.000000E+00  0.000000E+00  1.000000E+00  0.000000E+00  1.000000E+00 
 0.000000E+00  1.000000E+00  0.000000E+00  1.000000E+00  0.000000E+00  1.000000E+00  0.000000E+00  1.000000E+00  0.000000E+00  1.000000E+00 
 0.000000E+00  1.000000E+00  0.000000E+00  1.000000E+00  0.000000E+00  1.000000E+00  0.000000E+00  1.000000E+00  0.000000E+00  1.000000E+00 
 0.000000E+00  1.000000E+00  0.000000E+00  1.000000E+00  0.000000E+00  1.000000E+00  0.000000E+00  1.000000E+00  0.000000E+00  1.000000E+00 
 0.000000E+00  1.000000E+00  0.000000E+00  1.000000E+00  0.000000E+00  1.000000E+00  0.000000E+00  1.000000E+00  0.000000E+00  1.000000E+00 
 0.000000E+00  1.000000E+00  0.000000E+00  1.000000E+00  0.000000E+00  1.000000E+00  0.000000E+00  1.000000E+00  0.000000E+00  1.000000E+00 
 0.000000E+00  1.000000E+00  0.000000E+00  1.000000E+00  0.000000E+00  1.000000E+00  0.000000E+00  1.000000E+00  0.000000E+00  1.000000E+00 
 0.000000E+00  1.000000E+00  0.000000E+00  1.000000E+00  0.000000E+00  1.000000E+00  0.000000E+00  1.000000E+00  0.000000E+00  1.000000E+00 
 0.000000E+00  1.000000E+00  0.000000E+00  1.000000E+00  0.000000E+00  1.000000E+00  0.000000E+00  1.000000E+00  0.000000E+00  1.000000E+00 
 0.000000E+00  1.000000E+00  0.000000E+00  1.000000E+00  0.000000E+00  1.000000E+00  0.000000E+00  1.000000E+00  0.000000E+00  1.000000E+00 
 0.000000E+00  1.000000E+00  0.000000E+00  1.000000E+00  0.000000E+00  1.000000E+00  0.000000E+00  1.000000E+00  0.000000E+00  1.000000E+00 
 0.000000E+00  1.000000E+00  0.000000E+00  1.000000E+00  0.000000E+00  1.000000E+00  0.000000E+00  1.000000E+00  0.000000E+00  1.000000E+00 
 0.000000E+00  1.000000E+00  0.000000E+00  1.000000E+00  0.000000E+00  1.000000E+00  0.000000E+00  1.000000E+00  0.000000E+00  1.000000E+00 
 0.000000E+00  1.000000E+00  0.000000E+00  1.000000E+00  0.000000E+00  1.000000E+00  0.000000E+00  1.000000E+00  0.000000E+00  1.000000E+00 
 0.000000E+00  1.000000E+00  0.000000E+00  1.000000E+00  0.000000E+00  1.000000E+00  0.000000E+00  1.000000E+00  0.000000E+00  1.000000E+00 
 0.000000E+00  1.000000E+00  0.000000E+00  1.000000E+00  0.000000E+00  1.000000E+00  0.000000E+00  1.000000E+00  0.000000E+00  1.000000E+00 
 0.000000E+00  1.000000E+00  0.000000E+00  1.000000E+00  0.000000E+00  1.000000E+00  0.000000E+00  1.000000E+00  0.000000E+00  1.000000E+00 
 0.000000E+00  1.000000E+00  0.000000E+00  1.000000E+00  0.000000E+00  1.000000E+00  0.000000E+00  1.000000E+00  0.000000E+00  1.000000E+00 
 0.000000E+00  1.000000E+00  0.000000E+00  1.000000E+00  0.000000E+00  1.000000E+00  0.000000E+00  1.000000E+00  0.000000E+00  1.000000E+00 
 0.000000E+00  1.000000E+00  0.000000E+00  1.000000E+00  0.000000E+00  1.000000E+00  0.000000E+00  1.000000E+00  0.000000E+00  1.000000E+00 
 0.000000E+00  1.000000E+00  0.000000E+00  1.000000E+00  0.000000E+00  1.000000E+00  0.000000E+00  1.000000E+00  0.000000E+00  1.000000E+00 
 0.000000E+00  1.000000E+00  0.000000E+00  1.000000E+00  0.000000E+00  1.000000E+00  0.000000E+00  1.000000E+00  0.000000E+00  1.000000E+00 
 0.000000E+00  1.000000E+00  0.000000E+00  1.000000E+00  0.000000E+00  1.000000E+00  0.000000E+00  1.000000E+00  0.000000E+00  1.000000E+00 
 0.000000E+00  1.000000E+00  0.000000E+00  1.000000E+00  0.000000E+00  1.000000E+00  0.000000E+00  1.000000E+00  0.000000E+00  1.000000E+00 
 0.000000E+00  1.000000E+00  0.000000E+00  1.000000E+00  0.000000E+00  1.000000E+00  0.000000E+00  1.000000E+00  0.000000E+00  1.000000E+00 
 0.000000E+00  1.000000E+00  0.000000E+00  1.000000E+00  0.000000E+00  1.000000E+00  0.000000E+00  1.000000E+00  0.000000E+00  1.000000E+00 
 0.000000E+00  1.000000E+00  0.000000E+00  1.000000E+00 
 0.000000E+00  0.000000E+00  1.000000E+00  1.000000E+00  0.000000E+00  0.000000E+00  1.000000E+00  1.000000E+00  0.000000E+00  0.000000E+00 
 1.000000E+00  1.000000E+00  0.000000E+00  0.000000E+00  1.000000E+00  1.000000E+00  0.000000E+00  0.000000E+00  1.000000E+00  1.000000E+00 
 0.000000E+00  0.000000E+00  1.000000E+00  1.000000E+00  0.000000E+00  0.000000E+00  1.000000E+00  1.000000E+00  0.000000E+00  0.000000E+00 
 1.000000E+00  1.000000E+00  0.000000E+00  0.000000E+00  1.000000E+00  1.000000E+00  0.000000E+00  0.000000E+00  1.000000E+00  1.000000E+00 
 0.000000E+00  0.000000E+00  1.000000E+00  1.000000E+00  0.000000E+00  0.000000E+00  1.000000E+00  1.000000E+00  0.000000E+00  0.000000E+00 
 1.000000E+00  1.000000E+00  0.000000E+00  0.000000E+00  1.000000E+00  1.000000E+00  0.000000E+00  0.000000E+00  1.000000E+00  1.000000E+00 
 0.000000E+00  0.000000E+00  1.000000E+00  1.000000E+00  0.000000E+00  0.000000E+00  1.000000E+00  1.000000E+00  0.000000E+00  0.000000E+00 
 1.000000E+00  1.000000E+00  0.000000E+00  0.000000E+00  1.000000E+00  1.000000E+00  0.000000E+00  0.000000E+00  1.000000E+00  1.000000E+00 
 0.000000E+00  0.000000E+00  1.000000E+00  1.000000E+00  0.000000E+00  0.000000E+00  1.000000E+00  1.000000E+00  0.000000E+00  0.000000E+00 
 1.000000E+00  1.000000E+00  0.000000E+00  0.000000E+00  1.000000E+00  1.000000E+00  0.000000E+00  0.000000E+00  1.000000E+00  1.000000E+00 
 0.000000E+00  0.000000E+00  1.000000E+00  1.000000E+00  0.000000E+00  0.000000E+00  1.000000E+00  1.000000E+00  0.000000E+00  0.000000E+00 
 1.000000E+00  1.000000E+00  0.000000E+00  0.000000E+00  1.000000E+00  1.000000E+00  0.000000E+00  0.000000E+00  1.000000E+00  1.000000E+00 
 0.000000E+00  0.000000E+00  1.000000E+00  1.000000E+00  0.000000E+00  0.000000E+00  1.000000E+00  1.000000E+00  0.000000E+00  0.000000E+00 
 1.000000E+00  1.000000E+00  0.000000E+00  0.000000E+00  1.000000E+00  1.000000E+00  0.000000E+00  0.000000E+00  1.000000E+00  1.000000E+00 
 0.000000E+00  0.000000E+00  1.000000E+00  1.000000E+00  0.000000E+00  0.000000E+00  1.000000E+00  1.000000E+00  0.000000E+00  0.000000E+00 
 1.000000E+00  1.000000E+00  0.000000E+00  0.000000E+00  1.000000E+00  1.000000E+00  0.000000E+00  0.000000E+00  1.000000E+00  1.000000E+00 
 0.000000E+00  0.000000E+00  1.000000E+00  1.000000E+00  0.000000E+00  0.000000E+00  1.000000E+00  1.000000E+00  0.000000E+00  0.000000E+00 
 1.000000E+00  1.000000E+00  0.000000E+00  0.000000E+00  1.000000E+00  1.000000E+00  0.000000E+00  0.000000E+00  1.000000E+00  1.000000E+00 
 0.000000E+00  0.000000E+00  1.000000E+00  1.000000E+00  0.000000E+00  0.000000E+00  1.000000E+00  1.000000E+00  0.000000E+00  0.000000E+00 
 1.000000E+00  1.000000E+00  0.000000E+00  0.000000E+00  1.000000E+00  1.000000E+00  0.000000E+00  0.000000E+00  1.000000E+00  1.000000E+00 
 0.000000E+00  0.000000E+00  1.000000E+00  1.000000E+00  0.000000E+00  0.000000E+00  1.000000E+00  1.000000E+00  0.000000E+00  0.000000E+00 
 1.000000E+00  1.000000E+00  0.000000E+00  0.000000E+00  1.000000E+00  1.000000E+00  0.000000E+00  0.000000E+00  1.000000E+00  1.000000E+00 
 0.000000E+00  0.000000E+00  1.000000E+00  1.000000E+00  0.000000E+00  0.000000E+00  1.000000E+00  1.000000E+00  0.000000E+00  0.000000E+00 
 1.000000E+00  1.000000E+00  0.000000E+00  0.000000E+00  1.000000E+00  1.000000E+00  0.000000E+00  0.000000E+00  1.000000E+00  1.000000E+00 
 0.000000E+00  0.000000E+00  1.000000E+00  1.000000E+00  0.000000E+00  0.000000E+00  1.000000E+00  1.000000E+00  0.000000E+00  0.000000E+00 
 1.000000E+00  1.000000E+00  0.000000E+00  0.000000E+00  1.000000E+00  1.000000E+00  0.000000E+00  0.000000E+00  1.000000E+00  1.000000E+00 
 0.000000E+00  0.000000E+00  1.000000E+00  1.000000E+00  0.000000E+00  0.000000E+00  1.000000E+00  1.000000E+00  0.000000E+00  0.000000E+00 
 1.000000E+00  1.000000E+00  0.000000E+00  0.000000E+00  1.000000E+00  1.000000E+00  0.000000E+00  0.000000E+00  1.000000E+00  1.000000E+00 
 0.000000E+00  0.000000E+00  1.000000E+00  1.000000E+00  0.000000E+00  0.000000E+00  1.000000E+00  1.000000E+00  0.000000E+00  0.000000E+00 
 1.000000E+00  1.000000E+00  0.000000E+00  0.000000E+00  1.000000E+00  1.000000E+00  0.000000E+00  0.000000E+00  1.000000E+00  1.000000E+00 
 0.000000E+00  0.000000E+00  1.000000E+00  1.000000E+00  0.000000E+00  0.000000E+00  1.000000E+00  1.000000E+00  0.000000E+00  0.000000E+00 
 1.000000E+00  1.000000E+00  0.000000E+00  0.000000E+00  1.000000E+00  1.000000E+00  0.000000E+00  0.000000E+00  1.000000E+00  1.000000E+00 
 0.000000E+00  0.000000E+00  1.000000E+00  1.000000E+00  0.000000E+00  0.000000E+00  1.000000E+00  1.000000E+00  0.000000E+00  0.000000E+00 
 1.000000E+00  1.000000E+00  0.000000E+00  0.000000E+00  1.000000E+00  1.000000E+00  0.000000E+00  0.000000E+00  1.000000E+00  1.000000E+00 
 0.000000E+00  0.000000E+00  1.000000E+00  1.000000E+00  0.000000E+00  0.000000E+00  1.000000E+00  1.000000E+00  0.000000E+00  0.000000E+00 
 1.000000E+00  1.000000E+00  0.000000E+00  0.000000E+00  1.000000E+00  1.000000E+00  0.000000E+00  0.000000E+00  1.000000E+00  1.000000E+00 
 0.000000E+00  0.000000E+00  1.000000E+00  1.000000E+00  0.000000E+00  0.000000E+00  1.000000E+00  1.000000E+00  0.000000E+00  0.000000E+00 
 1.000000E+00  1.000000E+00  0.000000E+00  0.000000E+00  1.000000E+00  1.000000E+00  0.000000E+00  0.000000E+00  1.000000E+00  1.000000E+00 
 0.000000E+00  0.000000E+00  1.000000E+00  1.000000E+00  0.000000E+00  0.000000E+00  1.000000E+00  1.000000E+00  0.000000E+00  0.000000E+00 
 1.000000E+00  1.000000E+00  0.000000E+00  0.000000E+00  1.000000E+00  1.000000E+00  0.000000E+00  0.000000E+00  1.000000E+00  1.000000E+00 
 0.000000E+00  0.000000E+00  1.000000E+00  1.000000E+00 
 0.000000E+00  0.000000E+00  0.000000E+00  0.000000E+00  1.000000E-01  1.000000E-01  1.000000E-01  1.000000E-01  2.000000E-01  2.000000E-01 
 2.000000E-01  2.000000E-01  3.000000E-01  3.000000E-01  3.000000E-01  3.000000E-01  4.000000E-01  4.000000E-01  4.000000E-01  4.000000E-01 
 5.000000E-01  5.000000E-01  5.000000E-01  5.000000E-01  6.000000E-01  6.000000E-01  6.000000E-01  6.000000E-01  7.000000E-01  7.000000E-01 
 7.000000E-01  7.000000E-01  8.000000E-01  8.000000E-01  8.000000E-01  8.000000E-01  9.000000E-01  9.000000E-01  9.000000E-01  9.000000E-01 
 1.000000E+00  1.000000E+00  1.000000E+00  1.000000E+00  1.100000E+00  1.100000E+00  1.100000E+00  1.100000E+00  1.200000E+00  1.200000E+00 
 1.200000E+00  1.200000E+00  1.300000E+00  1.300000E+00  1.300000E+00  1.300000E+00  1.400000E+00  1.400000E+00  1.400000E+00  1.400000E+00 
 1.500000E+00  1.500000E+00  1.500000E+00  1.500000E+00  1.600000E+00  1.600000E+00  1.600000E+00  1.600000E+00  1.700000E+00  1.700000E+00 
 1.700000E+00  1.700000E+00  1.800000E+00  1.800000E+00  1.800000E+00  1.800000E+00  1.900000E+00  1.900000E+00  1.900000E+00  1.900000E+00 
 2.000000E+00  2.000000E+00  2.000000E+00  2.000000E+00  2.100000E+00  2.100000E+00  2.100000E+00  2.100000E+00  2.200000E+00  2.200000E+00 
 2.200000E+00  2.200000E+00  2.300000E+00  2.300000E+00  2.300000E+00  2.300000E+00  2.400000E+00  2.400000E+00  2.400000E+00  2.400000E+00 
 2.500000E+00  2.500000E+00  2.500000E+00  2.500000E+00  2.600000E+00  2.600000E+00  2.600000E+00  2.600000E+00  2.700000E+00  2.700000E+00 
 2.700000E+00  2.700000E+00  2.800000E+00  2.800000E+00  2.800000E+00  2.800000E+00  2.900000E+00  2.900000E+00  2.900000E+00  2.900000E+00 
 3.000000E+00  3.000000E+00  3.000000E+00  3.000000E+00  3.100000E+00  3.100000E+00  3.100000E+00  3.100000E+00  3.200000E+00  3.200000E+00 
 3.200000E+00  3.200000E+00  3.300000E+00  3.300000E+00  3.300000E+00  3.300000E+00  3.400000E+00  3.400000E+00  3.400000E+00  3.400000E+00 
 3.500000E+00  3.500000E+00  3.500000E+00  3.500000E+00  3.600000E+00  3.600000E+00  3.600000E+00  3.600000E+00  3.700000E+00  3.700000E+00 
 3.700000E+00  3.700000E+00  3.800000E+00  3.800000E+00  3.800000E+00  3.800000E+00  3.900000E+00  3.900000E+00  3.900000E+00  3.900000E+00 
 4.000000E+00  4.000000E+00  4.000000E+00  4.000000E+00  4.100000E+00  4.100000E+00  4.100000E+00  4.100000E+00  4.200000E+00  4.200000E+00 
 4.200000E+00  4.200000E+00  4.300000E+00  4.300000E+00  4.300000E+00  4.300000E+00  4.400000E+00  4.400000E+00  4.400000E+00  4.400000E+00 
 4.500000E+00  4.500000E+00  4.500000E+00  4.500000E+00  4.600000E+00  4.600000E+00  4.600000E+00  4.600000E+00  4.700000E+00  4.700000E+00 
 4.700000E+00  4.700000E+00  4.800000E+00  4.800000E+00  4.800000E+00  4.800000E+00  4.900000E+00  4.900000E+00  4.900000E+00  4.900000E+00 
 5.000000E+00  5.000000E+00  5.000000E+00  5.000000E+00  5.100000E+00  5.100000E+00  5.100000E+00  5.100000E+00  5.200000E+00  5.200000E+00 
 5.200000E+00  5.200000E+00  5.300000E+00  5.300000E+00  5.300000E+00  5.300000E+00  5.400000E+00  5.400000E+00  5.400000E+00  5.400000E+00 
 5.500000E+00  5.500000E+00  5.500000E+00  5.500000E+00  5.600000E+00  5.600000E+00  5.600000E+00  5.600000E+00  5.700000E+00  5.700000E+00 
 5.700000E+00  5.700000E+00  5.800000E+00  5.800000E+00  5.800000E+00  5.800000E+00  5.900000E+00  5.900000E+00  5.900000E+00  5.900000E+00 
 6.000000E+00  6.000000E+00  6.000000E+00  6.000000E+00  6.100000E+00  6.100000E+00  6.100000E+00  6.100000E+00  6.200000E+00  6.200000E+00 
 6.200000E+00  6.200000E+00  6.300000E+00  6.300000E+00  6.300000E+00  6.300000E+00  6.400000E+00  6.400000E+00  6.400000E+00  6.400000E+00 
 6.500000E+00  6.500000E+00  6.500000E+00  6.500000E+00  6.600000E+00  6.600000E+00  6.600000E+00  6.600000E+00  6.700000E+00  6.700000E+00 
 6.700000E+00  6.700000E+00  6.800000E+00  6.800000E+00  6.800000E+00  6.800000E+00  6.900000E+00  6.900000E+00  6.900000E+00  6.900000E+00 
 7.000000E+00  7.000000E+00  7.000000E+00  7.000000E+00  7.100000E+00  7.100000E+00  7.100000E+00  7.100000E+00  7.200000E+00  7.200000E+00 
 7.200000E+00  7.200000E+00  7.300000E+00  7.300000E+00  7.300000E+00  7.300000E+00  7.400000E+00  7.400000E+00  7.400000E+00  7.400000E+00 
 7.500000E+00  7.500000E+00  7.500000E+00  7.500000E+00  7.600000E+00  7.600000E+00  7.600000E+00  7.600000E+00  7.700000E+00  7.700000E+00 
 7.700000E+00  7.700000E+00  7.800000E+00  7.800000E+00  7.800000E+00  7.800000E+00  7.900000E+00  7.900000E+00  7.900000E+00  7.900000E+00 
 8.000000E+00  8.000000E+00  8.000000E+00  8.000000E+00  8.100000E+00  8.100000E+00  8.100000E+00  8.100000E+00  8.200000E+00  8.200000E+00 
 8.200000E+00  8.200000E+00  8.300000E+00  8.300000E+00  8.300000E+00  8.300000E+00  8.400000E+00  8.400000E+00  8.400000E+00  8.400000E+00 
 8.500000E+00  8.500000E+00  8.500000E+00  8.500000E+00  8.600000E+00  8.600000E+00  8.600000E+00  8.600000E+00  8.700000E+00  8.700000E+00 
 8.700000E+00  8.700000E+00  8.800000E+00  8.800000E+00  8.800000E+00  8.800000E+00  8.900000E+00  8.900000E+00  8.900000E+00  8.900000E+00 
 9.000000E+00  9.000000E+00  9.000000E+00  9.000000E+00  9.100000E+00  9.100000E+00  9.100000E+00  9.100000E+00  9.200000E+00  9.200000E+00 
 9.200000E+00  9.200000E+00  9.300000E+00  9.300000E+00  9.300000E+00  9.300000E+00  9.400000E+00  9.400000E+00  9.400000E+00  9.400000E+00 
 9.500000E+00  9.500000E+00  9.500000E+00  9.500000E+00  9.600000E+00  9.600000E+00  9.600000E+00  9.600000E+00  9.700000E+00  9.700000E+00 
 9.700000E+00  9.700000E+00  9.800000E+00  9.800000E+00  9.800000E+00  9.800000E+00  9.900000E+00  9.900000E+00  9.900000E+00  9.900000E+00 
 1.000000E+01  1.000000E+01  1.000000E+01  1.000000E+01 
 1.106150E+05  1.096371E+05  1.086592E+05  1.076813E+05  1.067034E+05  1.057255E+05  1.047476E+05  1.037697E+05  1.027918E+05  1.018139E+05
 1.008361E+05  9.985816E+04  9.888026E+04  9.790237E+04  9.692447E+04  9.594658E+04  9.496868E+04  9.399079E+04  9.301289E+04  9.203500E+04
 9.105710E+04  9.007921E+04  8.910131E+04  8.812342E+04  8.714553E+04  8.616763E+04  8.518974E+04  8.421185E+04  8.323396E+04  8.225607E+04
 8.127818E+04  8.030029E+04  7.932240E+04  7.834452E+04  7.736663E+04  7.638875E+04  7.541086E+04  7.443298E+04  7.345510E+04  7.247722E+04
 7.149934E+04  7.052146E+04  6.954358E+04  6.856570E+04  6.758782E+04  6.660995E+04  6.563207E+04  6.465419E+04  6.367632E+04  6.269844E+04
 6.172056E+04  6.074269E+04  5.976481E+04  5.878694E+04  5.780906E+04  5.683119E+04  5.585331E+04  5.487544E+04  5.389757E+04  5.291969E+04
 5.194182E+04  5.096395E+04  4.998608E+04  4.900821E+04  4.803033E+04  4.705246E+04  4.607459E+04  4.509672E+04  4.411885E+04  4.314098E+04
 4.216311E+04  4.118525E+04  4.020738E+04  3.922951E+04  3.825164E+04  3.727378E+04  3.629591E+04  3.531804E+04  3.434018E+04  3.336231E+04
 3.238445E+04  3.140658E+04  3.042872E+04  2.945086E+04  2.847299E+04  2.749513E+04  2.651728E+04  2.553943E+04  2.456162E+04  2.358388E+04
 2.260634E+04  2.162933E+04  2.065363E+04  1.968119E+04  1.871654E+04  1.776961E+04  1.686061E+04  1.602616E+04  1.532212E+04  1.481289E+04
 1.000000E+00  1.000000E+00  1.000000E+00  1.000000E+00  1.000000E+00  1.000000E+00  1.000000E+00  1.000000E+00  1.000000E+00  1.000000E+00
 9.989261E-01  9.904712E-01  9.742532E-01  9.515064E-01  9.237675E-01  8.926288E-01  8.595470E-01  8.257341E-01  7.921211E-01  7.593731E-01
 7.279295E-01  6.980524E-01  6.698732E-01  6.434306E-01  6.187019E-01  5.956247E-01  5.741135E-01  5.540709E-01  5.353949E-01  5.179838E-01
 5.017397E-01  4.865694E-01  4.723862E-01  4.591098E-01  4.466662E-01  4.349878E-01  4.240131E-01  4.136858E-01  4.039549E-01  3.947740E-01
 3.861009E-01  3.778972E-01  3.701280E-01  3.627615E-01  3.557688E-01  3.491236E-01  3.428016E-01  3.367808E-01  3.310410E-01  3.255638E-01
 3.203322E-01  3.153305E-01  3.105444E-01  3.059606E-01  3.015670E-01  2.973523E-01  2.933061E-01  2.894186E-01  2.856811E-01  2.820850E-01
 2.786228E-01  2.752873E-01  2.720717E-01  2.689699E-01  2.659759E-01  2.630845E-01  2.602904E-01  2.575890E-01  2.549757E-01  2.524465E-01
 2.499973E-01  2.476245E-01  2.453246E-01  2.430944E-01  2.409307E-01  2.388307E-01  2.367917E-01  2.348110E-01  2.328862E-01  2.310150E-01
 2.291952E-01  2.274248E-01  2.257017E-01  2.240242E-01  2.223905E-01  2.207988E-01  2.192477E-01  2.177356E-01  2.162611E-01  2.148228E-01
 2.134197E-01  2.120509E-01  2.107164E-01  2.094172E-01  2.081581E-01  2.069498E-01  2.058148E-01  2.047937E-01  2.039473E-01  2.033436E-01
 1  1  1  1  1  1  1  1  1  1
 1  1  1  1  1  1  1  1  1  1
 1  1  1  1  1  1  1  1  1  1
 1  1  1  1  1  1  1  1  1  1
 1  1  1  1  1  1  1  1  1  1
 1  1  1  1  1  1  1  1  1  1
 1  1  1  1  1  1  1  1  1  1
 1  1  1  1  1  1  1  1  1  1
 1  1  1  1  1  1  1  1  1  1
 1  1  1  1  1  1  1  1  1  1
