TITLE = "  4.00000E+00 [d]"
VARIABLES="X [m]","Y [m]","Z [m]","Liquid Pressure [Pa]","Liquid Saturation","Material ID"
ZONE T="4.00000E+00", I=2, J=2, K=101, VARLOCATION=([4-6]=CELLCENTERED), DATAPACKING=BLOCK
 0.000000E+00  1.000000E+00  0.000000E+00  1.000000E+00  0.000000E+00  1.000000E+00  0.000000E+00  1.000000E+00  0.000000E+00  1.000000E+00 
 0.000000E+00  1.000000E+00  0.000000E+00  1.000000E+00  0.000000E+00  1.000000E+00  0.000000E+00  1.000000E+00  0.000000E+00  1.000000E+00 
 0.000000E+00  1.000000E+00  0.000000E+00  1.000000E+00  0.000000E+00  1.000000E+00  0.000000E+00  1.000000E+00  0.000000E+00  1.000000E+00 
 0.000000E+00  1.000000E+00  0.000000E+00  1.000000E+00  0.000000E+00  1.000000E+00  0.000000E+00  1.000000E+00  0.000000E+00  1.000000E+00 
 0.000000E+00  1.000000E+00  0.000000E+00  1.000000E+00  0.000000E+00  1.000000E+00  0.000000E+00  1.000000E+00  0.000000E+00  1.000000E+00 
 0.000000E+00  1.000000E+00  0.000000E+00  1.000000E+00  0.000000E+00  1.000000E+00  0.000000E+00  1.000000E+00  0.000000E+00  1.000000E+00 
 0.000000E+00  1.000000E+00  0.000000E+00  1.000000E+00  0.000000E+00  1.000000E+00  0.000000E+00  1.000000E+00  0.000000E+00  1.000000E+00 
 0.000000E+00  1.000000E+00  0.000000E+00  1.000000E+00  0.000000E+00  1.000000E+00  0.000000E+00  1.000000E+00  0.000000E+00  1.000000E+00 
 0.000000E+00  1.000000E+00  0.000000E+00  1.000000E+00  0.000000E+00  1.000000E+00  0.000000E+00  1.000000E+00  0.000000E+00  1.000000E+00 
 0.000000E+00  1.000000E+00  0.000000E+00  1.000000E+00  0.000000E+00  1.000000E+00  0.000000E+00  1.000000E+00  0.000000E+00  1.000000E+00 
 0.000000E+00  1.000000E+00  0.000000E+00  1.000000E+00  0.000000E+00  1.000000E+00  0.000000E+00  1.000000E+00  0.000000E+00  1.000000E+00 
 0.000000E+00  1.000000E+00  0.000000E+00  1.000000E+00  0.000000E+00  1.000000E+00  0.000000E+00  1.000000E+00  0.000000E+00  1.000000E+00 
 0.000000E+00  1.000000E+00  0.000000E+00  1.000000E+00  0.000000E+00  1.000000E+00  0.000000E+00  1.000000E+00  0.000000E+00  1.000000E+00 
 0.000000E+00  1.000000E+00  0.000000E+00  1.000000E+00  0.000000E+00  1.000000E+00  0.000000E+00  1.000000E+00  0.000000E+00  1.000000E+00 
 0.000000E+00  1.000000E+00  0.000000E+00  1.000000E+00  0.000000E+00  1.000000E+00  0.000000E+00  1.000000E+00  0.000000E+00  1.000000E+00 
 0.000000E+00  1.000000E+00  0.000000E+00  1.000000E+00  0.000000E+00  1.000000E+00  0.000000E+00  1.000000E+00  0.000000E+00  1.000000E+00 
 0.000000E+00  1.000000E+00  0.000000E+00  1.000000E+00  0.000000E+00  1.000000E+00  0.000000E+00  1.000000E+00  0.000000E+00  1.000000E+00 
 0.000000E+00  1.000000E+00  0.000000E+00  1.000000E+00  0.000000E+00  1.000000E+00  0.000000E+00  1.000000E+00  0.000000E+00  1.000000E+00 
 0.000000E+00  1.000000E+00  0.000000E+00  1.000000E+00  0.000000E+00  1.000000E+00  0.000000E+00  1.000000E+00  0.000000E+00  1.000000E+00 
 0.000000E+00  1.000000E+00  0.000000E+00  1.000000E+00  0.000000E+00  1.000000E+00  0.000000E+00  1.000000E+00  0.000000E+00  1.000000E+00 
 0.000000E+00  1.000000E+00  0.000000E+00  1.000000E+00  0.000000E+00  1.000000E+00  0.000000E+00  1.000000E+00  0.000000E+00  1.000000E+00 
 0.000000E+00  1.000000E+00  0.000000E+00  1.000000E+00  0.000000E+00  1.000000E+00  0.000000E+00  1.000000E+00  0.000000E+00  1.000000E+00 
 0.000000E+00  1.000000E+00  0.000000E+00  1.000000E+00  0.000000E+00  1.000000E+00  0.000000E+00  1.000000E+00  0.000000E+00  1.000000E+00 
 0.000000E+00  1.000000E+00  0.000000E+00  1.000000E+00  0.000000E+00  1.000000E+00  0.000000E+00  1.000000E+00  0.000000E+00  1.000000E+00 
 0.000000E+00  1.000000E+00  0.000000E+00  1.000000E+00  0.000000E+00  1.000000E+00  0.000000E+00  1.000000E+00  0.000000E+00  1.000000E+00 
 0.000000E+00  1.000000E+00  0.000000E+00  1.000000E+00  0.000000E+00  1.000000E+00  0.000000E+00  1.000000E+00  0.000000E+00  1.000000E+00 
 0.000000E+00  1.000000E+00  0.000000E+00  1.000000E+00  0.000000E+00  1.000000E+00  0.000000E+00  1.000000E+00  0.000000E+00  1.000000E+00 
 0.000000E+00  1.000000E+00  0.000000E+00  1.000000E+00  0.000000E+00  1.000000E+00  0.000000E+00  1.000000E+00  0.000000E+00  1.000000E+00 
 0.000000E+00  1.000000E+00  0.000000E+00  1.000000E+00  0.000000E+00  1.000000E+00  0.000000E+00  1.000000E+00  0.000000E+00  1.000000E+00 
 0.000000E+00  1.000000E+00  0.000000E+00  1.000000E+00  0.000000E+00  1.000000E+00  0.000000E+00  1.000000E+00  0.000000E+00  1.000000E+00 
 0.000000E+00  1.000000E+00  0.000000E+00  1.000000E+00  0.000000E+00  1.000000E+00  0.000000E+00  1.000000E+00  0.000000E+00  1.000000E+00 
 0.000000E+00  1.000000E+00  0.000000E+00  1.000000E+00  0.000000E+00  1.000000E+00  0.000000E+00  1.000000E+00  0.000000E+00  1.000000E+00 
 0.000000E+00  1.000000E+00  0.000000E+00  1.000000E+00  0.000000E+00  1.000000E+00  0.000000E+00  1.000000E+00  0.000000E+00  1.000000E+00 
 0.000000E+00  1.000000E+00  0.000000E+00  1.000000E+00  0.000000E+00  1.000000E+00  0.000000E+00  1.000000E+00  0.000000E+00  1.000000E+00 
 0.000000E+00  1.000000E+00  0.000000E+00  1.000000E+00  0.000000E+00  1.000000E+00  0.000000E+00  1.000000E+00  0.000000E+00  1.000000E+00 
 0.000000E+00  1.000000E+00  0.000000E+00  1.000000E+00  0.000000E+00  1.000000E+00  0.000000E+00  1.000000E+00  0.000000E+00  1.000000E+00 
 0.000000E+00  1.000000E+00  0.000000E+00  1.000000E+00  0.000000E+00  1.000000E+00  0.000000E+00  1.000000E+00  0.000000E+00  1.000000E+00 
 0.000000E+00  1.000000E+00  0.000000E+00  1.000000E+00  0.000000E+00  1.000000E+00  0.000000E+00  1.000000E+00  0.000000E+00  1.000000E+00 
 0.000000E+00  1.000000E+00  0.000000E+00  1.000000E+00  0.000000E+00  1.000000E+00  0.000000E+00  1.000000E+00  0.000000E+00  1.000000E+00 
 0.000000E+00  1.000000E+00  0.000000E+00  1.000000E+00  0.000000E+00  1.000000E+00  0.000000E+00  1.000000E+00  0.000000E+00  1.000000E+00 
 0.000000E+00  1.000000E+00  0.000000E+00  1.000000E+00 
 0.000000E+00  0.000000E+00  1.000000E+00  1.000000E+00  0.000000E+00  0.000000E+00  1.000000E+00  1.000000E+00  0.000000E+00  0.000000E+00 
 1.000000E+00  1.000000E+00  0.000000E+00  0.000000E+00  1.000000E+00  1.000000E+00  0.000000E+00  0.000000E+00  1.000000E+00  1.000000E+00 
 0.000000E+00  0.000000E+00  1.000000E+00  1.000000E+00  0.000000E+00  0.000000E+00  1.000000E+00  1.000000E+00  0.000000E+00  0.000000E+00 
 1.000000E+00  1.000000E+00  0.000000E+00  0.000000E+00  1.000000E+00  1.000000E+00  0.000000E+00  0.000000E+00  1.000000E+00  1.000000E+00 
 0.000000E+00  0.000000E+00  1.000000E+00  1.000000E+00  0.000000E+00  0.000000E+00  1.000000E+00  1.000000E+00  0.000000E+00  0.000000E+00 
 1.000000E+00  1.000000E+00  0.000000E+00  0.000000E+00  1.000000E+00  1.000000E+00  0.000000E+00  0.000000E+00  1.000000E+00  1.000000E+00 
 0.000000E+00  0.000000E+00  1.000000E+00  1.000000E+00  0.000000E+00  0.000000E+00  1.000000E+00  1.000000E+00  0.000000E+00  0.000000E+00 
 1.000000E+00  1.000000E+00  0.000000E+00  0.000000E+00  1.000000E+00  1.000000E+00  0.000000E+00  0.000000E+00  1.000000E+00  1.000000E+00 
 0.000000E+00  0.000000E+00  1.000000E+00  1.000000E+00  0.000000E+00  0.000000E+00  1.000000E+00  1.000000E+00  0.000000E+00  0.000000E+00 
 1.000000E+00  1.000000E+00  0.000000E+00  0.000000E+00  1.000000E+00  1.000000E+00  0.000000E+00  0.000000E+00  1.000000E+00  1.000000E+00 
 0.000000E+00  0.000000E+00  1.000000E+00  1.000000E+00  0.000000E+00  0.000000E+00  1.000000E+00  1.000000E+00  0.000000E+00  0.000000E+00 
 1.000000E+00  1.000000E+00  0.000000E+00  0.000000E+00  1.000000E+00  1.000000E+00  0.000000E+00  0.000000E+00  1.000000E+00  1.000000E+00 
 0.000000E+00  0.000000E+00  1.000000E+00  1.000000E+00  0.000000E+00  0.000000E+00  1.000000E+00  1.000000E+00  0.000000E+00  0.000000E+00 
 1.000000E+00  1.000000E+00  0.000000E+00  0.000000E+00  1.000000E+00  1.000000E+00  0.000000E+00  0.000000E+00  1.000000E+00  1.000000E+00 
 0.000000E+00  0.000000E+00  1.000000E+00  1.000000E+00  0.000000E+00  0.000000E+00  1.000000E+00  1.000000E+00  0.000000E+00  0.000000E+00 
 1.000000E+00  1.000000E+00  0.000000E+00  0.000000E+00  1.000000E+00  1.000000E+00  0.000000E+00  0.000000E+00  1.000000E+00  1.000000E+00 
 0.000000E+00  0.000000E+00  1.000000E+00  1.000000E+00  0.000000E+00  0.000000E+00  1.000000E+00  1.000000E+00  0.000000E+00  0.000000E+00 
 1.000000E+00  1.000000E+00  0.000000E+00  0.000000E+00  1.000000E+00  1.000000E+00  0.000000E+00  0.000000E+00  1.000000E+00  1.000000E+00 
 0.000000E+00  0.000000E+00  1.000000E+00  1.000000E+00  0.000000E+00  0.000000E+00  1.000000E+00  1.000000E+00  0.000000E+00  0.000000E+00 
 1.000000E+00  1.000000E+00  0.000000E+00  0.000000E+00  1.000000E+00  1.000000E+00  0.000000E+00  0.000000E+00  1.000000E+00  1.000000E+00 
 0.000000E+00  0.000000E+00  1.000000E+00  1.000000E+00  0.000000E+00  0.000000E+00  1.000000E+00  1.000000E+00  0.000000E+00  0.000000E+00 
 1.000000E+00  1.000000E+00  0.000000E+00  0.000000E+00  1.000000E+00  1.000000E+00  0.000000E+00  0.000000E+00  1.000000E+00  1.000000E+00 
 0.000000E+00  0.000000E+00  1.000000E+00  1.000000E+00  0.000000E+00  0.000000E+00  1.000000E+00  1.000000E+00  0.000000E+00  0.000000E+00 
 1.000000E+00  1.000000E+00  0.000000E+00  0.000000E+00  1.000000E+00  1.000000E+00  0.000000E+00  0.000000E+00  1.000000E+00  1.000000E+00 
 0.000000E+00  0.000000E+00  1.000000E+00  1.000000E+00  0.000000E+00  0.000000E+00  1.000000E+00  1.000000E+00  0.000000E+00  0.000000E+00 
 1.000000E+00  1.000000E+00  0.000000E+00  0.000000E+00  1.000000E+00  1.000000E+00  0.000000E+00  0.000000E+00  1.000000E+00  1.000000E+00 
 0.000000E+00  0.000000E+00  1.000000E+00  1.000000E+00  0.000000E+00  0.000000E+00  1.000000E+00  1.000000E+00  0.000000E+00  0.000000E+00 
 1.000000E+00  1.000000E+00  0.000000E+00  0.000000E+00  1.000000E+00  1.000000E+00  0.000000E+00  0.000000E+00  1.000000E+00  1.000000E+00 
 0.000000E+00  0.000000E+00  1.000000E+00  1.000000E+00  0.000000E+00  0.000000E+00  1.000000E+00  1.000000E+00  0.000000E+00  0.000000E+00 
 1.000000E+00  1.000000E+00  0.000000E+00  0.000000E+00  1.000000E+00  1.000000E+00  0.000000E+00  0.000000E+00  1.000000E+00  1.000000E+00 
 0.000000E+00  0.000000E+00  1.000000E+00  1.000000E+00  0.000000E+00  0.000000E+00  1.000000E+00  1.000000E+00  0.000000E+00  0.000000E+00 
 1.000000E+00  1.000000E+00  0.000000E+00  0.000000E+00  1.000000E+00  1.000000E+00  0.000000E+00  0.000000E+00  1.000000E+00  1.000000E+00 
 0.000000E+00  0.000000E+00  1.000000E+00  1.000000E+00  0.000000E+00  0.000000E+00  1.000000E+00  1.000000E+00  0.000000E+00  0.000000E+00 
 1.000000E+00  1.000000E+00  0.000000E+00  0.000000E+00  1.000000E+00  1.000000E+00  0.000000E+00  0.000000E+00  1.000000E+00  1.000000E+00 
 0.000000E+00  0.000000E+00  1.000000E+00  1.000000E+00  0.000000E+00  0.000000E+00  1.000000E+00  1.000000E+00  0.000000E+00  0.000000E+00 
 1.000000E+00  1.000000E+00  0.000000E+00  0.000000E+00  1.000000E+00  1.000000E+00  0.000000E+00  0.000000E+00  1.000000E+00  1.000000E+00 
 0.000000E+00  0.000000E+00  1.000000E+00  1.000000E+00  0.000000E+00  0.000000E+00  1.000000E+00  1.000000E+00  0.000000E+00  0.000000E+00 
 1.000000E+00  1.000000E+00  0.000000E+00  0.000000E+00  1.000000E+00  1.000000E+00  0.000000E+00  0.000000E+00  1.000000E+00  1.000000E+00 
 0.000000E+00  0.000000E+00  1.000000E+00  1.000000E+00  0.000000E+00  0.000000E+00  1.000000E+00  1.000000E+00  0.000000E+00  0.000000E+00 
 1.000000E+00  1.000000E+00  0.000000E+00  0.000000E+00  1.000000E+00  1.000000E+00  0.000000E+00  0.000000E+00  1.000000E+00  1.000000E+00 
 0.000000E+00  0.000000E+00  1.000000E+00  1.000000E+00 
 0.000000E+00  0.000000E+00  0.000000E+00  0.000000E+00  1.000000E-01  1.000000E-01  1.000000E-01  1.000000E-01  2.000000E-01  2.000000E-01 
 2.000000E-01  2.000000E-01  3.000000E-01  3.000000E-01  3.000000E-01  3.000000E-01  4.000000E-01  4.000000E-01  4.000000E-01  4.000000E-01 
 5.000000E-01  5.000000E-01  5.000000E-01  5.000000E-01  6.000000E-01  6.000000E-01  6.000000E-01  6.000000E-01  7.000000E-01  7.000000E-01 
 7.000000E-01  7.000000E-01  8.000000E-01  8.000000E-01  8.000000E-01  8.000000E-01  9.000000E-01  9.000000E-01  9.000000E-01  9.000000E-01 
 1.000000E+00  1.000000E+00  1.000000E+00  1.000000E+00  1.100000E+00  1.100000E+00  1.100000E+00  1.100000E+00  1.200000E+00  1.200000E+00 
 1.200000E+00  1.200000E+00  1.300000E+00  1.300000E+00  1.300000E+00  1.300000E+00  1.400000E+00  1.400000E+00  1.400000E+00  1.400000E+00 
 1.500000E+00  1.500000E+00  1.500000E+00  1.500000E+00  1.600000E+00  1.600000E+00  1.600000E+00  1.600000E+00  1.700000E+00  1.700000E+00 
 1.700000E+00  1.700000E+00  1.800000E+00  1.800000E+00  1.800000E+00  1.800000E+00  1.900000E+00  1.900000E+00  1.900000E+00  1.900000E+00 
 2.000000E+00  2.000000E+00  2.000000E+00  2.000000E+00  2.100000E+00  2.100000E+00  2.100000E+00  2.100000E+00  2.200000E+00  2.200000E+00 
 2.200000E+00  2.200000E+00  2.300000E+00  2.300000E+00  2.300000E+00  2.300000E+00  2.400000E+00  2.400000E+00  2.400000E+00  2.400000E+00 
 2.500000E+00  2.500000E+00  2.500000E+00  2.500000E+00  2.600000E+00  2.600000E+00  2.600000E+00  2.600000E+00  2.700000E+00  2.700000E+00 
 2.700000E+00  2.700000E+00  2.800000E+00  2.800000E+00  2.800000E+00  2.800000E+00  2.900000E+00  2.900000E+00  2.900000E+00  2.900000E+00 
 3.000000E+00  3.000000E+00  3.000000E+00  3.000000E+00  3.100000E+00  3.100000E+00  3.100000E+00  3.100000E+00  3.200000E+00  3.200000E+00 
 3.200000E+00  3.200000E+00  3.300000E+00  3.300000E+00  3.300000E+00  3.300000E+00  3.400000E+00  3.400000E+00  3.400000E+00  3.400000E+00 
 3.500000E+00  3.500000E+00  3.500000E+00  3.500000E+00  3.600000E+00  3.600000E+00  3.600000E+00  3.600000E+00  3.700000E+00  3.700000E+00 
 3.700000E+00  3.700000E+00  3.800000E+00  3.800000E+00  3.800000E+00  3.800000E+00  3.900000E+00  3.900000E+00  3.900000E+00  3.900000E+00 
 4.000000E+00  4.000000E+00  4.000000E+00  4.000000E+00  4.100000E+00  4.100000E+00  4.100000E+00  4.100000E+00  4.200000E+00  4.200000E+00 
 4.200000E+00  4.200000E+00  4.300000E+00  4.300000E+00  4.300000E+00  4.300000E+00  4.400000E+00  4.400000E+00  4.400000E+00  4.400000E+00 
 4.500000E+00  4.500000E+00  4.500000E+00  4.500000E+00  4.600000E+00  4.600000E+00  4.600000E+00  4.600000E+00  4.700000E+00  4.700000E+00 
 4.700000E+00  4.700000E+00  4.800000E+00  4.800000E+00  4.800000E+00  4.800000E+00  4.900000E+00  4.900000E+00  4.900000E+00  4.900000E+00 
 5.000000E+00  5.000000E+00  5.000000E+00  5.000000E+00  5.100000E+00  5.100000E+00  5.100000E+00  5.100000E+00  5.200000E+00  5.200000E+00 
 5.200000E+00  5.200000E+00  5.300000E+00  5.300000E+00  5.300000E+00  5.300000E+00  5.400000E+00  5.400000E+00  5.400000E+00  5.400000E+00 
 5.500000E+00  5.500000E+00  5.500000E+00  5.500000E+00  5.600000E+00  5.600000E+00  5.600000E+00  5.600000E+00  5.700000E+00  5.700000E+00 
 5.700000E+00  5.700000E+00  5.800000E+00  5.800000E+00  5.800000E+00  5.800000E+00  5.900000E+00  5.900000E+00  5.900000E+00  5.900000E+00 
 6.000000E+00  6.000000E+00  6.000000E+00  6.000000E+00  6.100000E+00  6.100000E+00  6.100000E+00  6.100000E+00  6.200000E+00  6.200000E+00 
 6.200000E+00  6.200000E+00  6.300000E+00  6.300000E+00  6.300000E+00  6.300000E+00  6.400000E+00  6.400000E+00  6.400000E+00  6.400000E+00 
 6.500000E+00  6.500000E+00  6.500000E+00  6.500000E+00  6.600000E+00  6.600000E+00  6.600000E+00  6.600000E+00  6.700000E+00  6.700000E+00 
 6.700000E+00  6.700000E+00  6.800000E+00  6.800000E+00  6.800000E+00  6.800000E+00  6.900000E+00  6.900000E+00  6.900000E+00  6.900000E+00 
 7.000000E+00  7.000000E+00  7.000000E+00  7.000000E+00  7.100000E+00  7.100000E+00  7.100000E+00  7.100000E+00  7.200000E+00  7.200000E+00 
 7.200000E+00  7.200000E+00  7.300000E+00  7.300000E+00  7.300000E+00  7.300000E+00  7.400000E+00  7.400000E+00  7.400000E+00  7.400000E+00 
 7.500000E+00  7.500000E+00  7.500000E+00  7.500000E+00  7.600000E+00  7.600000E+00  7.600000E+00  7.600000E+00  7.700000E+00  7.700000E+00 
 7.700000E+00  7.700000E+00  7.800000E+00  7.800000E+00  7.800000E+00  7.800000E+00  7.900000E+00  7.900000E+00  7.900000E+00  7.900000E+00 
 8.000000E+00  8.000000E+00  8.000000E+00  8.000000E+00  8.100000E+00  8.100000E+00  8.100000E+00  8.100000E+00  8.200000E+00  8.200000E+00 
 8.200000E+00  8.200000E+00  8.300000E+00  8.300000E+00  8.300000E+00  8.300000E+00  8.400000E+00  8.400000E+00  8.400000E+00  8.400000E+00 
 8.500000E+00  8.500000E+00  8.500000E+00  8.500000E+00  8.600000E+00  8.600000E+00  8.600000E+00  8.600000E+00  8.700000E+00  8.700000E+00 
 8.700000E+00  8.700000E+00  8.800000E+00  8.800000E+00  8.800000E+00  8.800000E+00  8.900000E+00  8.900000E+00  8.900000E+00  8.900000E+00 
 9.000000E+00  9.000000E+00  9.000000E+00  9.000000E+00  9.100000E+00  9.100000E+00  9.100000E+00  9.100000E+00  9.200000E+00  9.200000E+00 
 9.200000E+00  9.200000E+00  9.300000E+00  9.300000E+00  9.300000E+00  9.300000E+00  9.400000E+00  9.400000E+00  9.400000E+00  9.400000E+00 
 9.500000E+00  9.500000E+00  9.500000E+00  9.500000E+00  9.600000E+00  9.600000E+00  9.600000E+00  9.600000E+00  9.700000E+00  9.700000E+00 
 9.700000E+00  9.700000E+00  9.800000E+00  9.800000E+00  9.800000E+00  9.800000E+00  9.900000E+00  9.900000E+00  9.900000E+00  9.900000E+00 
 1.000000E+01  1.000000E+01  1.000000E+01  1.000000E+01 
 1.106150E+05  1.096371E+05  1.086592E+05  1.076813E+05  1.067034E+05  1.057255E+05  1.047476E+05  1.037697E+05  1.027918E+05  1.018139E+05
 1.008361E+05  9.985816E+04  9.888026E+04  9.790237E+04  9.692447E+04  9.594658E+04  9.496868E+04  9.399079E+04  9.301289E+04  9.203500E+04
 9.105710E+04  9.007921E+04  8.910132E+04  8.812342E+04  8.714553E+04  8.616764E+04  8.518975E+04  8.421186E+04  8.323397E+04  8.225608E+04
 8.127819E+04  8.030030E+04  7.932241E+04  7.834453E+04  7.736664E+04  7.638876E+04  7.541088E+04  7.443300E+04  7.345511E+04  7.247723E+04
 7.149935E+04  7.052147E+04  6.954360E+04  6.856572E+04  6.758784E+04  6.660996E+04  6.563208E+04  6.465421E+04  6.367633E+04  6.269845E+04
 6.172058E+04  6.074270E+04  5.976482E+04  5.878695E+04  5.780907E+04  5.683120E+04  5.585332E+04  5.487545E+04  5.389757E+04  5.291970E+04
 5.194183E+04  5.096395E+04  4.998608E+04  4.900821E+04  4.803034E+04  4.705247E+04  4.607460E+04  4.509673E+04  4.411886E+04  4.314099E+04
 4.216312E+04  4.118525E+04  4.020738E+04  3.922951E+04  3.825165E+04  3.727378E+04  3.629591E+04  3.531805E+04  3.434018E+04  3.336232E+04
 3.238445E+04  3.140659E+04  3.042872E+04  2.945086E+04  2.847300E+04  2.749513E+04  2.651727E+04  2.553941E+04  2.456155E+04  2.358371E+04
 2.260590E+04  2.162820E+04  2.065084E+04  1.967450E+04  1.870114E+04  1.773621E+04  1.679368E+04  1.590591E+04  1.513653E+04  1.458008E+04
 1.000000E+00  1.000000E+00  1.000000E+00  1.000000E+00  1.000000E+00  1.000000E+00  1.000000E+00  1.000000E+00  1.000000E+00  1.000000E+00
 9.989261E-01  9.904712E-01  9.742532E-01  9.515064E-01  9.237675E-01  8.926288E-01  8.595470E-01  8.257341E-01  7.921211E-01  7.593732E-01
 7.279295E-01  6.980525E-01  6.698732E-01  6.434307E-01  6.187020E-01  5.956248E-01  5.741136E-01  5.540710E-01  5.353950E-01  5.179840E-01
 5.017398E-01  4.865696E-01  4.723864E-01  4.591099E-01  4.466663E-01  4.349880E-01  4.240133E-01  4.136860E-01  4.039551E-01  3.947742E-01
 3.861010E-01  3.778973E-01  3.701281E-01  3.627616E-01  3.557689E-01  3.491237E-01  3.428016E-01  3.367809E-01  3.310411E-01  3.255639E-01
 3.203322E-01  3.153305E-01  3.105444E-01  3.059607E-01  3.015671E-01  2.973524E-01  2.933061E-01  2.894187E-01  2.856811E-01  2.820850E-01
 2.786228E-01  2.752873E-01  2.720717E-01  2.689699E-01  2.659759E-01  2.630845E-01  2.602904E-01  2.575890E-01  2.549758E-01  2.524465E-01
 2.499973E-01  2.476245E-01  2.453246E-01  2.430944E-01  2.409307E-01  2.388307E-01  2.367917E-01  2.348110E-01  2.328862E-01  2.310150E-01
 2.291952E-01  2.274248E-01  2.257017E-01  2.240242E-01  2.223905E-01  2.207988E-01  2.192477E-01  2.177356E-01  2.162610E-01  2.148226E-01
 2.134191E-01  2.120494E-01  2.107126E-01  2.094084E-01  2.081382E-01  2.069076E-01  2.057321E-01  2.046482E-01  2.037265E-01  2.030699E-01
 1  1  1  1  1  1  1  1  1  1
 1  1  1  1  1  1  1  1  1  1
 1  1  1  1  1  1  1  1  1  1
 1  1  1  1  1  1  1  1  1  1
 1  1  1  1  1  1  1  1  1  1
 1  1  1  1  1  1  1  1  1  1
 1  1  1  1  1  1  1  1  1  1
 1  1  1  1  1  1  1  1  1  1
 1  1  1  1  1  1  1  1  1  1
 1  1  1  1  1  1  1  1  1  1
