TITLE = "  1.00000E+00 [d]"
VARIABLES="X [m]","Y [m]","Z [m]","Liquid Pressure [Pa]","Liquid Saturation","Material ID"
ZONE T="1.00000E+00", I=2, J=2, K=101, VARLOCATION=([4-6]=CELLCENTERED), DATAPACKING=BLOCK
 0.000000E+00  1.000000E+00  0.000000E+00  1.000000E+00  0.000000E+00  1.000000E+00  0.000000E+00  1.000000E+00  0.000000E+00  1.000000E+00 
 0.000000E+00  1.000000E+00  0.000000E+00  1.000000E+00  0.000000E+00  1.000000E+00  0.000000E+00  1.000000E+00  0.000000E+00  1.000000E+00 
 0.000000E+00  1.000000E+00  0.000000E+00  1.000000E+00  0.000000E+00  1.000000E+00  0.000000E+00  1.000000E+00  0.000000E+00  1.000000E+00 
 0.000000E+00  1.000000E+00  0.000000E+00  1.000000E+00  0.000000E+00  1.000000E+00  0.000000E+00  1.000000E+00  0.000000E+00  1.000000E+00 
 0.000000E+00  1.000000E+00  0.000000E+00  1.000000E+00  0.000000E+00  1.000000E+00  0.000000E+00  1.000000E+00  0.000000E+00  1.000000E+00 
 0.000000E+00  1.000000E+00  0.000000E+00  1.000000E+00  0.000000E+00  1.000000E+00  0.000000E+00  1.000000E+00  0.000000E+00  1.000000E+00 
 0.000000E+00  1.000000E+00  0.000000E+00  1.000000E+00  0.000000E+00  1.000000E+00  0.000000E+00  1.000000E+00  0.000000E+00  1.000000E+00 
 0.000000E+00  1.000000E+00  0.000000E+00  1.000000E+00  0.000000E+00  1.000000E+00  0.000000E+00  1.000000E+00  0.000000E+00  1.000000E+00 
 0.000000E+00  1.000000E+00  0.000000E+00  1.000000E+00  0.000000E+00  1.000000E+00  0.000000E+00  1.000000E+00  0.000000E+00  1.000000E+00 
 0.000000E+00  1.000000E+00  0.000000E+00  1.000000E+00  0.000000E+00  1.000000E+00  0.000000E+00  1.000000E+00  0.000000E+00  1.000000E+00 
 0.000000E+00  1.000000E+00  0.000000E+00  1.000000E+00  0.000000E+00  1.000000E+00  0.000000E+00  1.000000E+00  0.000000E+00  1.000000E+00 
 0.000000E+00  1.000000E+00  0.000000E+00  1.000000E+00  0.000000E+00  1.000000E+00  0.000000E+00  1.000000E+00  0.000000E+00  1.000000E+00 
 0.000000E+00  1.000000E+00  0.000000E+00  1.000000E+00  0.000000E+00  1.000000E+00  0.000000E+00  1.000000E+00  0.000000E+00  1.000000E+00 
 0.000000E+00  1.000000E+00  0.000000E+00  1.000000E+00  0.000000E+00  1.000000E+00  0.000000E+00  1.000000E+00  0.000000E+00  1.000000E+00 
 0.000000E+00  1.000000E+00  0.000000E+00  1.000000E+00  0.000000E+00  1.000000E+00  0.000000E+00  1.000000E+00  0.000000E+00  1.000000E+00 
 0.000000E+00  1.000000E+00  0.000000E+00  1.000000E+00  0.000000E+00  1.000000E+00  0.000000E+00  1.000000E+00  0.000000E+00  1.000000E+00 
 0.000000E+00  1.000000E+00  0.000000E+00  1.000000E+00  0.000000E+00  1.000000E+00  0.000000E+00  1.000000E+00  0.000000E+00  1.000000E+00 
 0.000000E+00  1.000000E+00  0.000000E+00  1.000000E+00  0.000000E+00  1.000000E+00  0.000000E+00  1.000000E+00  0.000000E+00  1.000000E+00 
 0.000000E+00  1.000000E+00  0.000000E+00  1.000000E+00  0.000000E+00  1.000000E+00  0.000000E+00  1.000000E+00  0.000000E+00  1.000000E+00 
 0.000000E+00  1.000000E+00  0.000000E+00  1.000000E+00  0.000000E+00  1.000000E+00  0.000000E+00  1.000000E+00  0.000000E+00  1.000000E+00 
 0.000000E+00  1.000000E+00  0.000000E+00  1.000000E+00  0.000000E+00  1.000000E+00  0.000000E+00  1.000000E+00  0.000000E+00  1.000000E+00 
 0.000000E+00  1.000000E+00  0.000000E+00  1.000000E+00  0.000000E+00  1.000000E+00  0.000000E+00  1.000000E+00  0.000000E+00  1.000000E+00 
 0.000000E+00  1.000000E+00  0.000000E+00  1.000000E+00  0.000000E+00  1.000000E+00  0.000000E+00  1.000000E+00  0.000000E+00  1.000000E+00 
 0.000000E+00  1.000000E+00  0.000000E+00  1.000000E+00  0.000000E+00  1.000000E+00  0.000000E+00  1.000000E+00  0.000000E+00  1.000000E+00 
 0.000000E+00  1.000000E+00  0.000000E+00  1.000000E+00  0.000000E+00  1.000000E+00  0.000000E+00  1.000000E+00  0.000000E+00  1.000000E+00 
 0.000000E+00  1.000000E+00  0.000000E+00  1.000000E+00  0.000000E+00  1.000000E+00  0.000000E+00  1.000000E+00  0.000000E+00  1.000000E+00 
 0.000000E+00  1.000000E+00  0.000000E+00  1.000000E+00  0.000000E+00  1.000000E+00  0.000000E+00  1.000000E+00  0.000000E+00  1.000000E+00 
 0.000000E+00  1.000000E+00  0.000000E+00  1.000000E+00  0.000000E+00  1.000000E+00  0.000000E+00  1.000000E+00  0.000000E+00  1.000000E+00 
 0.000000E+00  1.000000E+00  0.000000E+00  1.000000E+00  0.000000E+00  1.000000E+00  0.000000E+00  1.000000E+00  0.000000E+00  1.000000E+00 
 0.000000E+00  1.000000E+00  0.000000E+00  1.000000E+00  0.000000E+00  1.000000E+00  0.000000E+00  1.000000E+00  0.000000E+00  1.000000E+00 
 0.000000E+00  1.000000E+00  0.000000E+00  1.000000E+00  0.000000E+00  1.000000E+00  0.000000E+00  1.000000E+00  0.000000E+00  1.000000E+00 
 0.000000E+00  1.000000E+00  0.000000E+00  1.000000E+00  0.000000E+00  1.000000E+00  0.000000E+00  1.000000E+00  0.000000E+00  1.000000E+00 
 0.000000E+00  1.000000E+00  0.000000E+00  1.000000E+00  0.000000E+00  1.000000E+00  0.000000E+00  1.000000E+00  0.000000E+00  1.000000E+00 
 0.000000E+00  1.000000E+00  0.000000E+00  1.000000E+00  0.000000E+00  1.000000E+00  0.000000E+00  1.000000E+00  0.000000E+00  1.000000E+00 
 0.000000E+00  1.000000E+00  0.000000E+00  1.000000E+00  0.000000E+00  1.000000E+00  0.000000E+00  1.000000E+00  0.000000E+00  1.000000E+00 
 0.000000E+00  1.000000E+00  0.000000E+00  1.000000E+00  0.000000E+00  1.000000E+00  0.000000E+00  1.000000E+00  0.000000E+00  1.000000E+00 
 0.000000E+00  1.000000E+00  0.000000E+00  1.000000E+00  0.000000E+00  1.000000E+00  0.000000E+00  1.000000E+00  0.000000E+00  1.000000E+00 
 0.000000E+00  1.000000E+00  0.000000E+00  1.000000E+00  0.000000E+00  1.000000E+00  0.000000E+00  1.000000E+00  0.000000E+00  1.000000E+00 
 0.000000E+00  1.000000E+00  0.000000E+00  1.000000E+00  0.000000E+00  1.000000E+00  0.000000E+00  1.000000E+00  0.000000E+00  1.000000E+00 
 0.000000E+00  1.000000E+00  0.000000E+00  1.000000E+00  0.000000E+00  1.000000E+00  0.000000E+00  1.000000E+00  0.000000E+00  1.000000E+00 
 0.000000E+00  1.000000E+00  0.000000E+00  1.000000E+00 
 0.000000E+00  0.000000E+00  1.000000E+00  1.000000E+00  0.000000E+00  0.000000E+00  1.000000E+00  1.000000E+00  0.000000E+00  0.000000E+00 
 1.000000E+00  1.000000E+00  0.000000E+00  0.000000E+00  1.000000E+00  1.000000E+00  0.000000E+00  0.000000E+00  1.000000E+00  1.000000E+00 
 0.000000E+00  0.000000E+00  1.000000E+00  1.000000E+00  0.000000E+00  0.000000E+00  1.000000E+00  1.000000E+00  0.000000E+00  0.000000E+00 
 1.000000E+00  1.000000E+00  0.000000E+00  0.000000E+00  1.000000E+00  1.000000E+00  0.000000E+00  0.000000E+00  1.000000E+00  1.000000E+00 
 0.000000E+00  0.000000E+00  1.000000E+00  1.000000E+00  0.000000E+00  0.000000E+00  1.000000E+00  1.000000E+00  0.000000E+00  0.000000E+00 
 1.000000E+00  1.000000E+00  0.000000E+00  0.000000E+00  1.000000E+00  1.000000E+00  0.000000E+00  0.000000E+00  1.000000E+00  1.000000E+00 
 0.000000E+00  0.000000E+00  1.000000E+00  1.000000E+00  0.000000E+00  0.000000E+00  1.000000E+00  1.000000E+00  0.000000E+00  0.000000E+00 
 1.000000E+00  1.000000E+00  0.000000E+00  0.000000E+00  1.000000E+00  1.000000E+00  0.000000E+00  0.000000E+00  1.000000E+00  1.000000E+00 
 0.000000E+00  0.000000E+00  1.000000E+00  1.000000E+00  0.000000E+00  0.000000E+00  1.000000E+00  1.000000E+00  0.000000E+00  0.000000E+00 
 1.000000E+00  1.000000E+00  0.000000E+00  0.000000E+00  1.000000E+00  1.000000E+00  0.000000E+00  0.000000E+00  1.000000E+00  1.000000E+00 
 0.000000E+00  0.000000E+00  1.000000E+00  1.000000E+00  0.000000E+00  0.000000E+00  1.000000E+00  1.000000E+00  0.000000E+00  0.000000E+00 
 1.000000E+00  1.000000E+00  0.000000E+00  0.000000E+00  1.000000E+00  1.000000E+00  0.000000E+00  0.000000E+00  1.000000E+00  1.000000E+00 
 0.000000E+00  0.000000E+00  1.000000E+00  1.000000E+00  0.000000E+00  0.000000E+00  1.000000E+00  1.000000E+00  0.000000E+00  0.000000E+00 
 1.000000E+00  1.000000E+00  0.000000E+00  0.000000E+00  1.000000E+00  1.000000E+00  0.000000E+00  0.000000E+00  1.000000E+00  1.000000E+00 
 0.000000E+00  0.000000E+00  1.000000E+00  1.000000E+00  0.000000E+00  0.000000E+00  1.000000E+00  1.000000E+00  0.000000E+00  0.000000E+00 
 1.000000E+00  1.000000E+00  0.000000E+00  0.000000E+00  1.000000E+00  1.000000E+00  0.000000E+00  0.000000E+00  1.000000E+00  1.000000E+00 
 0.000000E+00  0.000000E+00  1.000000E+00  1.000000E+00  0.000000E+00  0.000000E+00  1.000000E+00  1.000000E+00  0.000000E+00  0.000000E+00 
 1.000000E+00  1.000000E+00  0.000000E+00  0.000000E+00  1.000000E+00  1.000000E+00  0.000000E+00  0.000000E+00  1.000000E+00  1.000000E+00 
 0.000000E+00  0.000000E+00  1.000000E+00  1.000000E+00  0.000000E+00  0.000000E+00  1.000000E+00  1.000000E+00  0.000000E+00  0.000000E+00 
 1.000000E+00  1.000000E+00  0.000000E+00  0.000000E+00  1.000000E+00  1.000000E+00  0.000000E+00  0.000000E+00  1.000000E+00  1.000000E+00 
 0.000000E+00  0.000000E+00  1.000000E+00  1.000000E+00  0.000000E+00  0.000000E+00  1.000000E+00  1.000000E+00  0.000000E+00  0.000000E+00 
 1.000000E+00  1.000000E+00  0.000000E+00  0.000000E+00  1.000000E+00  1.000000E+00  0.000000E+00  0.000000E+00  1.000000E+00  1.000000E+00 
 0.000000E+00  0.000000E+00  1.000000E+00  1.000000E+00  0.000000E+00  0.000000E+00  1.000000E+00  1.000000E+00  0.000000E+00  0.000000E+00 
 1.000000E+00  1.000000E+00  0.000000E+00  0.000000E+00  1.000000E+00  1.000000E+00  0.000000E+00  0.000000E+00  1.000000E+00  1.000000E+00 
 0.000000E+00  0.000000E+00  1.000000E+00  1.000000E+00  0.000000E+00  0.000000E+00  1.000000E+00  1.000000E+00  0.000000E+00  0.000000E+00 
 1.000000E+00  1.000000E+00  0.000000E+00  0.000000E+00  1.000000E+00  1.000000E+00  0.000000E+00  0.000000E+00  1.000000E+00  1.000000E+00 
 0.000000E+00  0.000000E+00  1.000000E+00  1.000000E+00  0.000000E+00  0.000000E+00  1.000000E+00  1.000000E+00  0.000000E+00  0.000000E+00 
 1.000000E+00  1.000000E+00  0.000000E+00  0.000000E+00  1.000000E+00  1.000000E+00  0.000000E+00  0.000000E+00  1.000000E+00  1.000000E+00 
 0.000000E+00  0.000000E+00  1.000000E+00  1.000000E+00  0.000000E+00  0.000000E+00  1.000000E+00  1.000000E+00  0.000000E+00  0.000000E+00 
 1.000000E+00  1.000000E+00  0.000000E+00  0.000000E+00  1.000000E+00  1.000000E+00  0.000000E+00  0.000000E+00  1.000000E+00  1.000000E+00 
 0.000000E+00  0.000000E+00  1.000000E+00  1.000000E+00  0.000000E+00  0.000000E+00  1.000000E+00  1.000000E+00  0.000000E+00  0.000000E+00 
 1.000000E+00  1.000000E+00  0.000000E+00  0.000000E+00  1.000000E+00  1.000000E+00  0.000000E+00  0.000000E+00  1.000000E+00  1.000000E+00 
 0.000000E+00  0.000000E+00  1.000000E+00  1.000000E+00  0.000000E+00  0.000000E+00  1.000000E+00  1.000000E+00  0.000000E+00  0.000000E+00 
 1.000000E+00  1.000000E+00  0.000000E+00  0.000000E+00  1.000000E+00  1.000000E+00  0.000000E+00  0.000000E+00  1.000000E+00  1.000000E+00 
 0.000000E+00  0.000000E+00  1.000000E+00  1.000000E+00  0.000000E+00  0.000000E+00  1.000000E+00  1.000000E+00  0.000000E+00  0.000000E+00 
 1.000000E+00  1.000000E+00  0.000000E+00  0.000000E+00  1.000000E+00  1.000000E+00  0.000000E+00  0.000000E+00  1.000000E+00  1.000000E+00 
 0.000000E+00  0.000000E+00  1.000000E+00  1.000000E+00  0.000000E+00  0.000000E+00  1.000000E+00  1.000000E+00  0.000000E+00  0.000000E+00 
 1.000000E+00  1.000000E+00  0.000000E+00  0.000000E+00  1.000000E+00  1.000000E+00  0.000000E+00  0.000000E+00  1.000000E+00  1.000000E+00 
 0.000000E+00  0.000000E+00  1.000000E+00  1.000000E+00  0.000000E+00  0.000000E+00  1.000000E+00  1.000000E+00  0.000000E+00  0.000000E+00 
 1.000000E+00  1.000000E+00  0.000000E+00  0.000000E+00  1.000000E+00  1.000000E+00  0.000000E+00  0.000000E+00  1.000000E+00  1.000000E+00 
 0.000000E+00  0.000000E+00  1.000000E+00  1.000000E+00 
 0.000000E+00  0.000000E+00  0.000000E+00  0.000000E+00  1.000000E-01  1.000000E-01  1.000000E-01  1.000000E-01  2.000000E-01  2.000000E-01 
 2.000000E-01  2.000000E-01  3.000000E-01  3.000000E-01  3.000000E-01  3.000000E-01  4.000000E-01  4.000000E-01  4.000000E-01  4.000000E-01 
 5.000000E-01  5.000000E-01  5.000000E-01  5.000000E-01  6.000000E-01  6.000000E-01  6.000000E-01  6.000000E-01  7.000000E-01  7.000000E-01 
 7.000000E-01  7.000000E-01  8.000000E-01  8.000000E-01  8.000000E-01  8.000000E-01  9.000000E-01  9.000000E-01  9.000000E-01  9.000000E-01 
 1.000000E+00  1.000000E+00  1.000000E+00  1.000000E+00  1.100000E+00  1.100000E+00  1.100000E+00  1.100000E+00  1.200000E+00  1.200000E+00 
 1.200000E+00  1.200000E+00  1.300000E+00  1.300000E+00  1.300000E+00  1.300000E+00  1.400000E+00  1.400000E+00  1.400000E+00  1.400000E+00 
 1.500000E+00  1.500000E+00  1.500000E+00  1.500000E+00  1.600000E+00  1.600000E+00  1.600000E+00  1.600000E+00  1.700000E+00  1.700000E+00 
 1.700000E+00  1.700000E+00  1.800000E+00  1.800000E+00  1.800000E+00  1.800000E+00  1.900000E+00  1.900000E+00  1.900000E+00  1.900000E+00 
 2.000000E+00  2.000000E+00  2.000000E+00  2.000000E+00  2.100000E+00  2.100000E+00  2.100000E+00  2.100000E+00  2.200000E+00  2.200000E+00 
 2.200000E+00  2.200000E+00  2.300000E+00  2.300000E+00  2.300000E+00  2.300000E+00  2.400000E+00  2.400000E+00  2.400000E+00  2.400000E+00 
 2.500000E+00  2.500000E+00  2.500000E+00  2.500000E+00  2.600000E+00  2.600000E+00  2.600000E+00  2.600000E+00  2.700000E+00  2.700000E+00 
 2.700000E+00  2.700000E+00  2.800000E+00  2.800000E+00  2.800000E+00  2.800000E+00  2.900000E+00  2.900000E+00  2.900000E+00  2.900000E+00 
 3.000000E+00  3.000000E+00  3.000000E+00  3.000000E+00  3.100000E+00  3.100000E+00  3.100000E+00  3.100000E+00  3.200000E+00  3.200000E+00 
 3.200000E+00  3.200000E+00  3.300000E+00  3.300000E+00  3.300000E+00  3.300000E+00  3.400000E+00  3.400000E+00  3.400000E+00  3.400000E+00 
 3.500000E+00  3.500000E+00  3.500000E+00  3.500000E+00  3.600000E+00  3.600000E+00  3.600000E+00  3.600000E+00  3.700000E+00  3.700000E+00 
 3.700000E+00  3.700000E+00  3.800000E+00  3.800000E+00  3.800000E+00  3.800000E+00  3.900000E+00  3.900000E+00  3.900000E+00  3.900000E+00 
 4.000000E+00  4.000000E+00  4.000000E+00  4.000000E+00  4.100000E+00  4.100000E+00  4.100000E+00  4.100000E+00  4.200000E+00  4.200000E+00 
 4.200000E+00  4.200000E+00  4.300000E+00  4.300000E+00  4.300000E+00  4.300000E+00  4.400000E+00  4.400000E+00  4.400000E+00  4.400000E+00 
 4.500000E+00  4.500000E+00  4.500000E+00  4.500000E+00  4.600000E+00  4.600000E+00  4.600000E+00  4.600000E+00  4.700000E+00  4.700000E+00 
 4.700000E+00  4.700000E+00  4.800000E+00  4.800000E+00  4.800000E+00  4.800000E+00  4.900000E+00  4.900000E+00  4.900000E+00  4.900000E+00 
 5.000000E+00  5.000000E+00  5.000000E+00  5.000000E+00  5.100000E+00  5.100000E+00  5.100000E+00  5.100000E+00  5.200000E+00  5.200000E+00 
 5.200000E+00  5.200000E+00  5.300000E+00  5.300000E+00  5.300000E+00  5.300000E+00  5.400000E+00  5.400000E+00  5.400000E+00  5.400000E+00 
 5.500000E+00  5.500000E+00  5.500000E+00  5.500000E+00  5.600000E+00  5.600000E+00  5.600000E+00  5.600000E+00  5.700000E+00  5.700000E+00 
 5.700000E+00  5.700000E+00  5.800000E+00  5.800000E+00  5.800000E+00  5.800000E+00  5.900000E+00  5.900000E+00  5.900000E+00  5.900000E+00 
 6.000000E+00  6.000000E+00  6.000000E+00  6.000000E+00  6.100000E+00  6.100000E+00  6.100000E+00  6.100000E+00  6.200000E+00  6.200000E+00 
 6.200000E+00  6.200000E+00  6.300000E+00  6.300000E+00  6.300000E+00  6.300000E+00  6.400000E+00  6.400000E+00  6.400000E+00  6.400000E+00 
 6.500000E+00  6.500000E+00  6.500000E+00  6.500000E+00  6.600000E+00  6.600000E+00  6.600000E+00  6.600000E+00  6.700000E+00  6.700000E+00 
 6.700000E+00  6.700000E+00  6.800000E+00  6.800000E+00  6.800000E+00  6.800000E+00  6.900000E+00  6.900000E+00  6.900000E+00  6.900000E+00 
 7.000000E+00  7.000000E+00  7.000000E+00  7.000000E+00  7.100000E+00  7.100000E+00  7.100000E+00  7.100000E+00  7.200000E+00  7.200000E+00 
 7.200000E+00  7.200000E+00  7.300000E+00  7.300000E+00  7.300000E+00  7.300000E+00  7.400000E+00  7.400000E+00  7.400000E+00  7.400000E+00 
 7.500000E+00  7.500000E+00  7.500000E+00  7.500000E+00  7.600000E+00  7.600000E+00  7.600000E+00  7.600000E+00  7.700000E+00  7.700000E+00 
 7.700000E+00  7.700000E+00  7.800000E+00  7.800000E+00  7.800000E+00  7.800000E+00  7.900000E+00  7.900000E+00  7.900000E+00  7.900000E+00 
 8.000000E+00  8.000000E+00  8.000000E+00  8.000000E+00  8.100000E+00  8.100000E+00  8.100000E+00  8.100000E+00  8.200000E+00  8.200000E+00 
 8.200000E+00  8.200000E+00  8.300000E+00  8.300000E+00  8.300000E+00  8.300000E+00  8.400000E+00  8.400000E+00  8.400000E+00  8.400000E+00 
 8.500000E+00  8.500000E+00  8.500000E+00  8.500000E+00  8.600000E+00  8.600000E+00  8.600000E+00  8.600000E+00  8.700000E+00  8.700000E+00 
 8.700000E+00  8.700000E+00  8.800000E+00  8.800000E+00  8.800000E+00  8.800000E+00  8.900000E+00  8.900000E+00  8.900000E+00  8.900000E+00 
 9.000000E+00  9.000000E+00  9.000000E+00  9.000000E+00  9.100000E+00  9.100000E+00  9.100000E+00  9.100000E+00  9.200000E+00  9.200000E+00 
 9.200000E+00  9.200000E+00  9.300000E+00  9.300000E+00  9.300000E+00  9.300000E+00  9.400000E+00  9.400000E+00  9.400000E+00  9.400000E+00 
 9.500000E+00  9.500000E+00  9.500000E+00  9.500000E+00  9.600000E+00  9.600000E+00  9.600000E+00  9.600000E+00  9.700000E+00  9.700000E+00 
 9.700000E+00  9.700000E+00  9.800000E+00  9.800000E+00  9.800000E+00  9.800000E+00  9.900000E+00  9.900000E+00  9.900000E+00  9.900000E+00 
 1.000000E+01  1.000000E+01  1.000000E+01  1.000000E+01 
 1.106150E+05  1.096371E+05  1.086592E+05  1.076813E+05  1.067034E+05  1.057255E+05  1.047476E+05  1.037697E+05  1.027918E+05  1.018139E+05
 1.008361E+05  9.985816E+04  9.888026E+04  9.790237E+04  9.692447E+04  9.594658E+04  9.496869E+04  9.399079E+04  9.301290E+04  9.203500E+04
 9.105711E+04  9.007922E+04  8.910133E+04  8.812343E+04  8.714554E+04  8.616765E+04  8.518977E+04  8.421188E+04  8.323399E+04  8.225610E+04
 8.127822E+04  8.030033E+04  7.932245E+04  7.834456E+04  7.736668E+04  7.638880E+04  7.541091E+04  7.443303E+04  7.345515E+04  7.247727E+04
 7.149939E+04  7.052150E+04  6.954362E+04  6.856574E+04  6.758786E+04  6.660998E+04  6.563210E+04  6.465423E+04  6.367635E+04  6.269847E+04
 6.172059E+04  6.074271E+04  5.976484E+04  5.878696E+04  5.780908E+04  5.683121E+04  5.585333E+04  5.487546E+04  5.389758E+04  5.291971E+04
 5.194184E+04  5.096396E+04  4.998609E+04  4.900822E+04  4.803035E+04  4.705247E+04  4.607460E+04  4.509673E+04  4.411886E+04  4.314099E+04
 4.216312E+04  4.118525E+04  4.020739E+04  3.922952E+04  3.825165E+04  3.727378E+04  3.629592E+04  3.531805E+04  3.434018E+04  3.336232E+04
 3.238445E+04  3.140659E+04  3.042873E+04  2.945086E+04  2.847300E+04  2.749514E+04  2.651727E+04  2.553941E+04  2.456155E+04  2.358369E+04
 2.260583E+04  2.162797E+04  2.065011E+04  1.967226E+04  1.869445E+04  1.771688E+04  1.674066E+04  1.577182E+04  1.484087E+04  1.407802E+04
 1.000000E+00  1.000000E+00  1.000000E+00  1.000000E+00  1.000000E+00  1.000000E+00  1.000000E+00  1.000000E+00  1.000000E+00  1.000000E+00
 9.989261E-01  9.904712E-01  9.742532E-01  9.515064E-01  9.237676E-01  8.926289E-01  8.595471E-01  8.257342E-01  7.921213E-01  7.593733E-01
 7.279297E-01  6.980527E-01  6.698735E-01  6.434310E-01  6.187023E-01  5.956251E-01  5.741140E-01  5.540714E-01  5.353954E-01  5.179844E-01
 5.017403E-01  4.865700E-01  4.723868E-01  4.591104E-01  4.466668E-01  4.349884E-01  4.240137E-01  4.136864E-01  4.039554E-01  3.947745E-01
 3.861013E-01  3.778975E-01  3.701283E-01  3.627618E-01  3.557691E-01  3.491238E-01  3.428018E-01  3.367810E-01  3.310412E-01  3.255640E-01
 3.203323E-01  3.153306E-01  3.105445E-01  3.059607E-01  3.015671E-01  2.973524E-01  2.933062E-01  2.894187E-01  2.856811E-01  2.820851E-01
 2.786229E-01  2.752873E-01  2.720717E-01  2.689699E-01  2.659760E-01  2.630845E-01  2.602904E-01  2.575890E-01  2.549758E-01  2.524465E-01
 2.499973E-01  2.476245E-01  2.453247E-01  2.430944E-01  2.409307E-01  2.388307E-01  2.367917E-01  2.348110E-01  2.328862E-01  2.310150E-01
 2.291952E-01  2.274248E-01  2.257017E-01  2.240242E-01  2.223905E-01  2.207989E-01  2.192477E-01  2.177356E-01  2.162610E-01  2.148225E-01
 2.134190E-01  2.120491E-01  2.107116E-01  2.094055E-01  2.081296E-01  2.068833E-01  2.056668E-01  2.044864E-01  2.033766E-01  2.024845E-01
 1  1  1  1  1  1  1  1  1  1
 1  1  1  1  1  1  1  1  1  1
 1  1  1  1  1  1  1  1  1  1
 1  1  1  1  1  1  1  1  1  1
 1  1  1  1  1  1  1  1  1  1
 1  1  1  1  1  1  1  1  1  1
 1  1  1  1  1  1  1  1  1  1
 1  1  1  1  1  1  1  1  1  1
 1  1  1  1  1  1  1  1  1  1
 1  1  1  1  1  1  1  1  1  1
