TITLE = "  0.00000E+00 [d]"
VARIABLES="X [m]","Y [m]","Z [m]","Liquid Pressure [Pa]","Liquid Saturation","Material ID"
ZONE T="0.00000E+00", I=6, J=6, K=6, VARLOCATION=([4-6]=CELLCENTERED), DATAPACKING=BLOCK
 1.000000E+00  2.000000E+00  3.000000E+00  4.000000E+00  5.000000E+00  6.000000E+00  1.000000E+00  2.000000E+00  3.000000E+00  4.000000E+00 
 5.000000E+00  6.000000E+00  1.000000E+00  2.000000E+00  3.000000E+00  4.000000E+00  5.000000E+00  6.000000E+00  1.000000E+00  2.000000E+00 
 3.000000E+00  4.000000E+00  5.000000E+00  6.000000E+00  1.000000E+00  2.000000E+00  3.000000E+00  4.000000E+00  5.000000E+00  6.000000E+00 
 1.000000E+00  2.000000E+00  3.000000E+00  4.000000E+00  5.000000E+00  6.000000E+00  1.000000E+00  2.000000E+00  3.000000E+00  4.000000E+00 
 5.000000E+00  6.000000E+00  1.000000E+00  2.000000E+00  3.000000E+00  4.000000E+00  5.000000E+00  6.000000E+00  1.000000E+00  2.000000E+00 
 3.000000E+00  4.000000E+00  5.000000E+00  6.000000E+00  1.000000E+00  2.000000E+00  3.000000E+00  4.000000E+00  5.000000E+00  6.000000E+00 
 1.000000E+00  2.000000E+00  3.000000E+00  4.000000E+00  5.000000E+00  6.000000E+00  1.000000E+00  2.000000E+00  3.000000E+00  4.000000E+00 
 5.000000E+00  6.000000E+00  1.000000E+00  2.000000E+00  3.000000E+00  4.000000E+00  5.000000E+00  6.000000E+00  1.000000E+00  2.000000E+00 
 3.000000E+00  4.000000E+00  5.000000E+00  6.000000E+00  1.000000E+00  2.000000E+00  3.000000E+00  4.000000E+00  5.000000E+00  6.000000E+00 
 1.000000E+00  2.000000E+00  3.000000E+00  4.000000E+00  5.000000E+00  6.000000E+00  1.000000E+00  2.000000E+00  3.000000E+00  4.000000E+00 
 5.000000E+00  6.000000E+00  1.000000E+00  2.000000E+00  3.000000E+00  4.000000E+00  5.000000E+00  6.000000E+00  1.000000E+00  2.000000E+00 
 3.000000E+00  4.000000E+00  5.000000E+00  6.000000E+00  1.000000E+00  2.000000E+00  3.000000E+00  4.000000E+00  5.000000E+00  6.000000E+00 
 1.000000E+00  2.000000E+00  3.000000E+00  4.000000E+00  5.000000E+00  6.000000E+00  1.000000E+00  2.000000E+00  3.000000E+00  4.000000E+00 
 5.000000E+00  6.000000E+00  1.000000E+00  2.000000E+00  3.000000E+00  4.000000E+00  5.000000E+00  6.000000E+00  1.000000E+00  2.000000E+00 
 3.000000E+00  4.000000E+00  5.000000E+00  6.000000E+00  1.000000E+00  2.000000E+00  3.000000E+00  4.000000E+00  5.000000E+00  6.000000E+00 
 1.000000E+00  2.000000E+00  3.000000E+00  4.000000E+00  5.000000E+00  6.000000E+00  1.000000E+00  2.000000E+00  3.000000E+00  4.000000E+00 
 5.000000E+00  6.000000E+00  1.000000E+00  2.000000E+00  3.000000E+00  4.000000E+00  5.000000E+00  6.000000E+00  1.000000E+00  2.000000E+00 
 3.000000E+00  4.000000E+00  5.000000E+00  6.000000E+00  1.000000E+00  2.000000E+00  3.000000E+00  4.000000E+00  5.000000E+00  6.000000E+00 
 1.000000E+00  2.000000E+00  3.000000E+00  4.000000E+00  5.000000E+00  6.000000E+00  1.000000E+00  2.000000E+00  3.000000E+00  4.000000E+00 
 5.000000E+00  6.000000E+00  1.000000E+00  2.000000E+00  3.000000E+00  4.000000E+00  5.000000E+00  6.000000E+00  1.000000E+00  2.000000E+00 
 3.000000E+00  4.000000E+00  5.000000E+00  6.000000E+00  1.000000E+00  2.000000E+00  3.000000E+00  4.000000E+00  5.000000E+00  6.000000E+00 
 1.000000E+00  2.000000E+00  3.000000E+00  4.000000E+00  5.000000E+00  6.000000E+00 
 2.000000E+00  2.000000E+00  2.000000E+00  2.000000E+00  2.000000E+00  2.000000E+00  2.250000E+00  2.250000E+00  2.250000E+00  2.250000E+00 
 2.250000E+00  2.250000E+00  2.750000E+00  2.750000E+00  2.750000E+00  2.750000E+00  2.750000E+00  2.750000E+00  3.750000E+00  3.750000E+00 
 3.750000E+00  3.750000E+00  3.750000E+00  3.750000E+00  5.750000E+00  5.750000E+00  5.750000E+00  5.750000E+00  5.750000E+00  5.750000E+00 
 9.750000E+00  9.750000E+00  9.750000E+00  9.750000E+00  9.750000E+00  9.750000E+00  2.000000E+00  2.000000E+00  2.000000E+00  2.000000E+00 
 2.000000E+00  2.000000E+00  2.250000E+00  2.250000E+00  2.250000E+00  2.250000E+00  2.250000E+00  2.250000E+00  2.750000E+00  2.750000E+00 
 2.750000E+00  2.750000E+00  2.750000E+00  2.750000E+00  3.750000E+00  3.750000E+00  3.750000E+00  3.750000E+00  3.750000E+00  3.750000E+00 
 5.750000E+00  5.750000E+00  5.750000E+00  5.750000E+00  5.750000E+00  5.750000E+00  9.750000E+00  9.750000E+00  9.750000E+00  9.750000E+00 
 9.750000E+00  9.750000E+00  2.000000E+00  2.000000E+00  2.000000E+00  2.000000E+00  2.000000E+00  2.000000E+00  2.250000E+00  2.250000E+00 
 2.250000E+00  2.250000E+00  2.250000E+00  2.250000E+00  2.750000E+00  2.750000E+00  2.750000E+00  2.750000E+00  2.750000E+00  2.750000E+00 
 3.750000E+00  3.750000E+00  3.750000E+00  3.750000E+00  3.750000E+00  3.750000E+00  5.750000E+00  5.750000E+00  5.750000E+00  5.750000E+00 
 5.750000E+00  5.750000E+00  9.750000E+00  9.750000E+00  9.750000E+00  9.750000E+00  9.750000E+00  9.750000E+00  2.000000E+00  2.000000E+00 
 2.000000E+00  2.000000E+00  2.000000E+00  2.000000E+00  2.250000E+00  2.250000E+00  2.250000E+00  2.250000E+00  2.250000E+00  2.250000E+00 
 2.750000E+00  2.750000E+00  2.750000E+00  2.750000E+00  2.750000E+00  2.750000E+00  3.750000E+00  3.750000E+00  3.750000E+00  3.750000E+00 
 3.750000E+00  3.750000E+00  5.750000E+00  5.750000E+00  5.750000E+00  5.750000E+00  5.750000E+00  5.750000E+00  9.750000E+00  9.750000E+00 
 9.750000E+00  9.750000E+00  9.750000E+00  9.750000E+00  2.000000E+00  2.000000E+00  2.000000E+00  2.000000E+00  2.000000E+00  2.000000E+00 
 2.250000E+00  2.250000E+00  2.250000E+00  2.250000E+00  2.250000E+00  2.250000E+00  2.750000E+00  2.750000E+00  2.750000E+00  2.750000E+00 
 2.750000E+00  2.750000E+00  3.750000E+00  3.750000E+00  3.750000E+00  3.750000E+00  3.750000E+00  3.750000E+00  5.750000E+00  5.750000E+00 
 5.750000E+00  5.750000E+00  5.750000E+00  5.750000E+00  9.750000E+00  9.750000E+00  9.750000E+00  9.750000E+00  9.750000E+00  9.750000E+00 
 2.000000E+00  2.000000E+00  2.000000E+00  2.000000E+00  2.000000E+00  2.000000E+00  2.250000E+00  2.250000E+00  2.250000E+00  2.250000E+00 
 2.250000E+00  2.250000E+00  2.750000E+00  2.750000E+00  2.750000E+00  2.750000E+00  2.750000E+00  2.750000E+00  3.750000E+00  3.750000E+00 
 3.750000E+00  3.750000E+00  3.750000E+00  3.750000E+00  5.750000E+00  5.750000E+00  5.750000E+00  5.750000E+00  5.750000E+00  5.750000E+00 
 9.750000E+00  9.750000E+00  9.750000E+00  9.750000E+00  9.750000E+00  9.750000E+00 
 3.000000E+00  3.000000E+00  3.000000E+00  3.000000E+00  3.000000E+00  3.000000E+00  3.000000E+00  3.000000E+00  3.000000E+00  3.000000E+00 
 3.000000E+00  3.000000E+00  3.000000E+00  3.000000E+00  3.000000E+00  3.000000E+00  3.000000E+00  3.000000E+00  3.000000E+00  3.000000E+00 
 3.000000E+00  3.000000E+00  3.000000E+00  3.000000E+00  3.000000E+00  3.000000E+00  3.000000E+00  3.000000E+00  3.000000E+00  3.000000E+00 
 3.000000E+00  3.000000E+00  3.000000E+00  3.000000E+00  3.000000E+00  3.000000E+00  4.000000E+00  4.000000E+00  4.000000E+00  4.000000E+00 
 4.000000E+00  4.000000E+00  4.000000E+00  4.000000E+00  4.000000E+00  4.000000E+00  4.000000E+00  4.000000E+00  4.000000E+00  4.000000E+00 
 4.000000E+00  4.000000E+00  4.000000E+00  4.000000E+00  4.000000E+00  4.000000E+00  4.000000E+00  4.000000E+00  4.000000E+00  4.000000E+00 
 4.000000E+00  4.000000E+00  4.000000E+00  4.000000E+00  4.000000E+00  4.000000E+00  4.000000E+00  4.000000E+00  4.000000E+00  4.000000E+00 
 4.000000E+00  4.000000E+00  6.000000E+00  6.000000E+00  6.000000E+00  6.000000E+00  6.000000E+00  6.000000E+00  6.000000E+00  6.000000E+00 
 6.000000E+00  6.000000E+00  6.000000E+00  6.000000E+00  6.000000E+00  6.000000E+00  6.000000E+00  6.000000E+00  6.000000E+00  6.000000E+00 
 6.000000E+00  6.000000E+00  6.000000E+00  6.000000E+00  6.000000E+00  6.000000E+00  6.000000E+00  6.000000E+00  6.000000E+00  6.000000E+00 
 6.000000E+00  6.000000E+00  6.000000E+00  6.000000E+00  6.000000E+00  6.000000E+00  6.000000E+00  6.000000E+00  8.000000E+00  8.000000E+00 
 8.000000E+00  8.000000E+00  8.000000E+00  8.000000E+00  8.000000E+00  8.000000E+00  8.000000E+00  8.000000E+00  8.000000E+00  8.000000E+00 
 8.000000E+00  8.000000E+00  8.000000E+00  8.000000E+00  8.000000E+00  8.000000E+00  8.000000E+00  8.000000E+00  8.000000E+00  8.000000E+00 
 8.000000E+00  8.000000E+00  8.000000E+00  8.000000E+00  8.000000E+00  8.000000E+00  8.000000E+00  8.000000E+00  8.000000E+00  8.000000E+00 
 8.000000E+00  8.000000E+00  8.000000E+00  8.000000E+00  1.000000E+01  1.000000E+01  1.000000E+01  1.000000E+01  1.000000E+01  1.000000E+01 
 1.000000E+01  1.000000E+01  1.000000E+01  1.000000E+01  1.000000E+01  1.000000E+01  1.000000E+01  1.000000E+01  1.000000E+01  1.000000E+01 
 1.000000E+01  1.000000E+01  1.000000E+01  1.000000E+01  1.000000E+01  1.000000E+01  1.000000E+01  1.000000E+01  1.000000E+01  1.000000E+01 
 1.000000E+01  1.000000E+01  1.000000E+01  1.000000E+01  1.000000E+01  1.000000E+01  1.000000E+01  1.000000E+01  1.000000E+01  1.000000E+01 
 1.200000E+01  1.200000E+01  1.200000E+01  1.200000E+01  1.200000E+01  1.200000E+01  1.200000E+01  1.200000E+01  1.200000E+01  1.200000E+01 
 1.200000E+01  1.200000E+01  1.200000E+01  1.200000E+01  1.200000E+01  1.200000E+01  1.200000E+01  1.200000E+01  1.200000E+01  1.200000E+01 
 1.200000E+01  1.200000E+01  1.200000E+01  1.200000E+01  1.200000E+01  1.200000E+01  1.200000E+01  1.200000E+01  1.200000E+01  1.200000E+01 
 1.200000E+01  1.200000E+01  1.200000E+01  1.200000E+01  1.200000E+01  1.200000E+01 
 1.013250E+05  1.013250E+05  1.013250E+05  1.013250E+05  1.013250E+05  1.013250E+05  1.013250E+05  1.013250E+05  1.013250E+05  1.013250E+05
 1.013250E+05  1.013250E+05  1.013250E+05  1.013250E+05  1.013250E+05  1.013250E+05  1.013250E+05  1.013250E+05  1.013250E+05  1.013250E+05
 1.013250E+05  1.013250E+05  1.013250E+05  1.013250E+05  1.013250E+05  1.013250E+05  1.013250E+05  1.013250E+05  1.013250E+05  1.013250E+05
 1.013250E+05  1.013250E+05  1.013250E+05  1.013250E+05  1.013250E+05  1.013250E+05  1.013250E+05  1.013250E+05  1.013250E+05  1.013250E+05
 1.013250E+05  1.013250E+05  1.013250E+05  1.013250E+05  1.013250E+05  1.013250E+05  1.013250E+05  1.013250E+05  1.013250E+05  1.013250E+05
 1.013250E+05  1.013250E+05  1.013250E+05  1.013250E+05  1.013250E+05  1.013250E+05  1.013250E+05  1.013250E+05  1.013250E+05  1.013250E+05
 1.013250E+05  1.013250E+05  1.013250E+05  1.013250E+05  1.013250E+05  1.013250E+05  1.013250E+05  1.013250E+05  1.013250E+05  1.013250E+05
 1.013250E+05  1.013250E+05  1.013250E+05  1.013250E+05  1.013250E+05  1.013250E+05  1.013250E+05  1.013250E+05  1.013250E+05  1.013250E+05
 1.013250E+05  1.013250E+05  1.013250E+05  1.013250E+05  1.013250E+05  1.013250E+05  1.013250E+05  1.013250E+05  1.013250E+05  1.013250E+05
 1.013250E+05  1.013250E+05  1.013250E+05  1.013250E+05  1.013250E+05  1.013250E+05  1.013250E+05  1.013250E+05  1.013250E+05  1.013250E+05
 1.013250E+05  1.013250E+05  1.013250E+05  1.013250E+05  1.013250E+05  1.013250E+05  1.013250E+05  1.013250E+05  1.013250E+05  1.013250E+05
 1.013250E+05  1.013250E+05  1.013250E+05  1.013250E+05  1.013250E+05  1.013250E+05  1.013250E+05  1.013250E+05  1.013250E+05  1.013250E+05
 1.013250E+05  1.013250E+05  1.013250E+05  1.013250E+05  1.013250E+05
 1.000000E+00  1.000000E+00  1.000000E+00  1.000000E+00  1.000000E+00  1.000000E+00  1.000000E+00  1.000000E+00  1.000000E+00  1.000000E+00
 1.000000E+00  1.000000E+00  1.000000E+00  1.000000E+00  1.000000E+00  1.000000E+00  1.000000E+00  1.000000E+00  1.000000E+00  1.000000E+00
 1.000000E+00  1.000000E+00  1.000000E+00  1.000000E+00  1.000000E+00  1.000000E+00  1.000000E+00  1.000000E+00  1.000000E+00  1.000000E+00
 1.000000E+00  1.000000E+00  1.000000E+00  1.000000E+00  1.000000E+00  1.000000E+00  1.000000E+00  1.000000E+00  1.000000E+00  1.000000E+00
 1.000000E+00  1.000000E+00  1.000000E+00  1.000000E+00  1.000000E+00  1.000000E+00  1.000000E+00  1.000000E+00  1.000000E+00  1.000000E+00
 1.000000E+00  1.000000E+00  1.000000E+00  1.000000E+00  1.000000E+00  1.000000E+00  1.000000E+00  1.000000E+00  1.000000E+00  1.000000E+00
 1.000000E+00  1.000000E+00  1.000000E+00  1.000000E+00  1.000000E+00  1.000000E+00  1.000000E+00  1.000000E+00  1.000000E+00  1.000000E+00
 1.000000E+00  1.000000E+00  1.000000E+00  1.000000E+00  1.000000E+00  1.000000E+00  1.000000E+00  1.000000E+00  1.000000E+00  1.000000E+00
 1.000000E+00  1.000000E+00  1.000000E+00  1.000000E+00  1.000000E+00  1.000000E+00  1.000000E+00  1.000000E+00  1.000000E+00  1.000000E+00
 1.000000E+00  1.000000E+00  1.000000E+00  1.000000E+00  1.000000E+00  1.000000E+00  1.000000E+00  1.000000E+00  1.000000E+00  1.000000E+00
 1.000000E+00  1.000000E+00  1.000000E+00  1.000000E+00  1.000000E+00  1.000000E+00  1.000000E+00  1.000000E+00  1.000000E+00  1.000000E+00
 1.000000E+00  1.000000E+00  1.000000E+00  1.000000E+00  1.000000E+00  1.000000E+00  1.000000E+00  1.000000E+00  1.000000E+00  1.000000E+00
 1.000000E+00  1.000000E+00  1.000000E+00  1.000000E+00  1.000000E+00
 1  1  1  1  1  1  1  1  1  1
 1  1  1  1  1  1  1  1  1  1
 1  1  1  1  1  1  1  1  1  1
 1  1  1  1  1  1  1  1  1  1
 1  1  1  1  1  1  1  1  1  1
 1  1  1  1  1  1  1  1  1  1
 1  1  1  1  1  1  1  1  1  1
 1  1  1  1  1  1  1  1  1  1
 1  1  1  1  1  1  1  1  1  1
 1  1  1  1  1  1  1  1  1  1
 1  1  1  1  1  1  1  1  1  1
 1  1  1  1  1  1  1  1  1  1
 1  1  1  1  1
