TITLE = "  0.00000E+00 [d]"
VARIABLES="X [m]","Y [m]","Z [m]","Porosity","Permeability X [m^2]","Liquid Saturation","Liquid Pressure [Pa]","Material ID"
ZONE T="0.00000E+00", I=3, J=3, K=3, VARLOCATION=([4-8]=CELLCENTERED), DATAPACKING=BLOCK
 0.000000E+00  1.000000E+00  2.000000E+00  0.000000E+00  1.000000E+00  2.000000E+00  0.000000E+00  1.000000E+00  2.000000E+00  0.000000E+00 
 1.000000E+00  2.000000E+00  0.000000E+00  1.000000E+00  2.000000E+00  0.000000E+00  1.000000E+00  2.000000E+00  0.000000E+00  1.000000E+00 
 2.000000E+00  0.000000E+00  1.000000E+00  2.000000E+00  0.000000E+00  1.000000E+00  2.000000E+00 
 0.000000E+00  0.000000E+00  0.000000E+00  1.000000E+00  1.000000E+00  1.000000E+00  2.000000E+00  2.000000E+00  2.000000E+00  0.000000E+00 
 0.000000E+00  0.000000E+00  1.000000E+00  1.000000E+00  1.000000E+00  2.000000E+00  2.000000E+00  2.000000E+00  0.000000E+00  0.000000E+00 
 0.000000E+00  1.000000E+00  1.000000E+00  1.000000E+00  2.000000E+00  2.000000E+00  2.000000E+00 
 0.000000E+00  0.000000E+00  0.000000E+00  0.000000E+00  0.000000E+00  0.000000E+00  0.000000E+00  0.000000E+00  0.000000E+00  1.000000E+00 
 1.000000E+00  1.000000E+00  1.000000E+00  1.000000E+00  1.000000E+00  1.000000E+00  1.000000E+00  1.000000E+00  2.000000E+00  2.000000E+00 
 2.000000E+00  2.000000E+00  2.000000E+00  2.000000E+00  2.000000E+00  2.000000E+00  2.000000E+00 
 1.000000E-01  2.000000E-01  3.000000E-01  4.000000E-01  5.000000E-01  6.000000E-01  7.000000E-01  8.000000E-01
 1.000000E-12  1.000000E-12  1.000000E-12  1.000000E-12  1.000000E-12  1.000000E-12  1.000000E-12  1.000000E-12
 3.640483E-01  3.640483E-01  3.640483E-01  3.640483E-01  3.640483E-01  3.640483E-01  3.640483E-01  3.640483E-01
 2.000000E+04  2.000000E+04  2.000000E+04  2.000000E+04  2.000000E+04  2.000000E+04  2.000000E+04  2.000000E+04
 1  1  1  1  1  1  1  1
