TITLE = "  0.00000E+00 [d]"
VARIABLES="X [m]","Y [m]","Z [m]","Liquid Pressure [Pa]","Liquid Saturation","Material ID"
ZONE T="0.00000E+00", I=11, J=2, K=2, VARLOCATION=([4-6]=CELLCENTERED), DATAPACKING=BLOCK
 0.000000E+00  1.000000E+00  2.000000E+00  3.000000E+00  4.000000E+00  5.000000E+00  6.000000E+00  7.000000E+00  8.000000E+00  9.000000E+00 
 1.000000E+01  0.000000E+00  1.000000E+00  2.000000E+00  3.000000E+00  4.000000E+00  5.000000E+00  6.000000E+00  7.000000E+00  8.000000E+00 
 9.000000E+00  1.000000E+01  0.000000E+00  1.000000E+00  2.000000E+00  3.000000E+00  4.000000E+00  5.000000E+00  6.000000E+00  7.000000E+00 
 8.000000E+00  9.000000E+00  1.000000E+01  0.000000E+00  1.000000E+00  2.000000E+00  3.000000E+00  4.000000E+00  5.000000E+00  6.000000E+00 
 7.000000E+00  8.000000E+00  9.000000E+00  1.000000E+01 
 0.000000E+00  0.000000E+00  0.000000E+00  0.000000E+00  0.000000E+00  0.000000E+00  0.000000E+00  0.000000E+00  0.000000E+00  0.000000E+00 
 0.000000E+00  1.000000E+00  1.000000E+00  1.000000E+00  1.000000E+00  1.000000E+00  1.000000E+00  1.000000E+00  1.000000E+00  1.000000E+00 
 1.000000E+00  1.000000E+00  0.000000E+00  0.000000E+00  0.000000E+00  0.000000E+00  0.000000E+00  0.000000E+00  0.000000E+00  0.000000E+00 
 0.000000E+00  0.000000E+00  0.000000E+00  1.000000E+00  1.000000E+00  1.000000E+00  1.000000E+00  1.000000E+00  1.000000E+00  1.000000E+00 
 1.000000E+00  1.000000E+00  1.000000E+00  1.000000E+00 
 0.000000E+00  0.000000E+00  0.000000E+00  0.000000E+00  0.000000E+00  0.000000E+00  0.000000E+00  0.000000E+00  0.000000E+00  0.000000E+00 
 0.000000E+00  0.000000E+00  0.000000E+00  0.000000E+00  0.000000E+00  0.000000E+00  0.000000E+00  0.000000E+00  0.000000E+00  0.000000E+00 
 0.000000E+00  0.000000E+00  1.000000E+00  1.000000E+00  1.000000E+00  1.000000E+00  1.000000E+00  1.000000E+00  1.000000E+00  1.000000E+00 
 1.000000E+00  1.000000E+00  1.000000E+00  1.000000E+00  1.000000E+00  1.000000E+00  1.000000E+00  1.000000E+00  1.000000E+00  1.000000E+00 
 1.000000E+00  1.000000E+00  1.000000E+00  1.000000E+00 
 1.013250E+05  1.013250E+05  1.013250E+05  1.013250E+05  1.013250E+05  1.013250E+05  1.013250E+05  1.013250E+05  1.013250E+05  1.013250E+05
 1.000000E+00  1.000000E+00  1.000000E+00  1.000000E+00  1.000000E+00  1.000000E+00  1.000000E+00  1.000000E+00  1.000000E+00  1.000000E+00
 1  1  1  1  1  1  1  1  1  1
