TITLE = "  0.00000E+00 [d]"
VARIABLES="X [m]","Y [m]","Z [m]","Liquid Pressure [Pa]","Liquid Saturation","Material ID"
ZONE T="0.00000E+00", I=11, J=2, K=11, VARLOCATION=([4-6]=CELLCENTERED), DATAPACKING=BLOCK
 0.000000E+00  1.000000E+00  2.000000E+00  3.000000E+00  4.000000E+00  5.000000E+00  6.000000E+00  7.000000E+00  8.000000E+00  9.000000E+00 
 1.000000E+01  0.000000E+00  1.000000E+00  2.000000E+00  3.000000E+00  4.000000E+00  5.000000E+00  6.000000E+00  7.000000E+00  8.000000E+00 
 9.000000E+00  1.000000E+01  0.000000E+00  1.000000E+00  2.000000E+00  3.000000E+00  4.000000E+00  5.000000E+00  6.000000E+00  7.000000E+00 
 8.000000E+00  9.000000E+00  1.000000E+01  0.000000E+00  1.000000E+00  2.000000E+00  3.000000E+00  4.000000E+00  5.000000E+00  6.000000E+00 
 7.000000E+00  8.000000E+00  9.000000E+00  1.000000E+01  0.000000E+00  1.000000E+00  2.000000E+00  3.000000E+00  4.000000E+00  5.000000E+00 
 6.000000E+00  7.000000E+00  8.000000E+00  9.000000E+00  1.000000E+01  0.000000E+00  1.000000E+00  2.000000E+00  3.000000E+00  4.000000E+00 
 5.000000E+00  6.000000E+00  7.000000E+00  8.000000E+00  9.000000E+00  1.000000E+01  0.000000E+00  1.000000E+00  2.000000E+00  3.000000E+00 
 4.000000E+00  5.000000E+00  6.000000E+00  7.000000E+00  8.000000E+00  9.000000E+00  1.000000E+01  0.000000E+00  1.000000E+00  2.000000E+00 
 3.000000E+00  4.000000E+00  5.000000E+00  6.000000E+00  7.000000E+00  8.000000E+00  9.000000E+00  1.000000E+01  0.000000E+00  1.000000E+00 
 2.000000E+00  3.000000E+00  4.000000E+00  5.000000E+00  6.000000E+00  7.000000E+00  8.000000E+00  9.000000E+00  1.000000E+01  0.000000E+00 
 1.000000E+00  2.000000E+00  3.000000E+00  4.000000E+00  5.000000E+00  6.000000E+00  7.000000E+00  8.000000E+00  9.000000E+00  1.000000E+01 
 0.000000E+00  1.000000E+00  2.000000E+00  3.000000E+00  4.000000E+00  5.000000E+00  6.000000E+00  7.000000E+00  8.000000E+00  9.000000E+00 
 1.000000E+01  0.000000E+00  1.000000E+00  2.000000E+00  3.000000E+00  4.000000E+00  5.000000E+00  6.000000E+00  7.000000E+00  8.000000E+00 
 9.000000E+00  1.000000E+01  0.000000E+00  1.000000E+00  2.000000E+00  3.000000E+00  4.000000E+00  5.000000E+00  6.000000E+00  7.000000E+00 
 8.000000E+00  9.000000E+00  1.000000E+01  0.000000E+00  1.000000E+00  2.000000E+00  3.000000E+00  4.000000E+00  5.000000E+00  6.000000E+00 
 7.000000E+00  8.000000E+00  9.000000E+00  1.000000E+01  0.000000E+00  1.000000E+00  2.000000E+00  3.000000E+00  4.000000E+00  5.000000E+00 
 6.000000E+00  7.000000E+00  8.000000E+00  9.000000E+00  1.000000E+01  0.000000E+00  1.000000E+00  2.000000E+00  3.000000E+00  4.000000E+00 
 5.000000E+00  6.000000E+00  7.000000E+00  8.000000E+00  9.000000E+00  1.000000E+01  0.000000E+00  1.000000E+00  2.000000E+00  3.000000E+00 
 4.000000E+00  5.000000E+00  6.000000E+00  7.000000E+00  8.000000E+00  9.000000E+00  1.000000E+01  0.000000E+00  1.000000E+00  2.000000E+00 
 3.000000E+00  4.000000E+00  5.000000E+00  6.000000E+00  7.000000E+00  8.000000E+00  9.000000E+00  1.000000E+01  0.000000E+00  1.000000E+00 
 2.000000E+00  3.000000E+00  4.000000E+00  5.000000E+00  6.000000E+00  7.000000E+00  8.000000E+00  9.000000E+00  1.000000E+01  0.000000E+00 
 1.000000E+00  2.000000E+00  3.000000E+00  4.000000E+00  5.000000E+00  6.000000E+00  7.000000E+00  8.000000E+00  9.000000E+00  1.000000E+01 
 0.000000E+00  1.000000E+00  2.000000E+00  3.000000E+00  4.000000E+00  5.000000E+00  6.000000E+00  7.000000E+00  8.000000E+00  9.000000E+00 
 1.000000E+01  0.000000E+00  1.000000E+00  2.000000E+00  3.000000E+00  4.000000E+00  5.000000E+00  6.000000E+00  7.000000E+00  8.000000E+00 
 9.000000E+00  1.000000E+01 
 0.000000E+00  0.000000E+00  0.000000E+00  0.000000E+00  0.000000E+00  0.000000E+00  0.000000E+00  0.000000E+00  0.000000E+00  0.000000E+00 
 0.000000E+00  1.000000E+00  1.000000E+00  1.000000E+00  1.000000E+00  1.000000E+00  1.000000E+00  1.000000E+00  1.000000E+00  1.000000E+00 
 1.000000E+00  1.000000E+00  0.000000E+00  0.000000E+00  0.000000E+00  0.000000E+00  0.000000E+00  0.000000E+00  0.000000E+00  0.000000E+00 
 0.000000E+00  0.000000E+00  0.000000E+00  1.000000E+00  1.000000E+00  1.000000E+00  1.000000E+00  1.000000E+00  1.000000E+00  1.000000E+00 
 1.000000E+00  1.000000E+00  1.000000E+00  1.000000E+00  0.000000E+00  0.000000E+00  0.000000E+00  0.000000E+00  0.000000E+00  0.000000E+00 
 0.000000E+00  0.000000E+00  0.000000E+00  0.000000E+00  0.000000E+00  1.000000E+00  1.000000E+00  1.000000E+00  1.000000E+00  1.000000E+00 
 1.000000E+00  1.000000E+00  1.000000E+00  1.000000E+00  1.000000E+00  1.000000E+00  0.000000E+00  0.000000E+00  0.000000E+00  0.000000E+00 
 0.000000E+00  0.000000E+00  0.000000E+00  0.000000E+00  0.000000E+00  0.000000E+00  0.000000E+00  1.000000E+00  1.000000E+00  1.000000E+00 
 1.000000E+00  1.000000E+00  1.000000E+00  1.000000E+00  1.000000E+00  1.000000E+00  1.000000E+00  1.000000E+00  0.000000E+00  0.000000E+00 
 0.000000E+00  0.000000E+00  0.000000E+00  0.000000E+00  0.000000E+00  0.000000E+00  0.000000E+00  0.000000E+00  0.000000E+00  1.000000E+00 
 1.000000E+00  1.000000E+00  1.000000E+00  1.000000E+00  1.000000E+00  1.000000E+00  1.000000E+00  1.000000E+00  1.000000E+00  1.000000E+00 
 0.000000E+00  0.000000E+00  0.000000E+00  0.000000E+00  0.000000E+00  0.000000E+00  0.000000E+00  0.000000E+00  0.000000E+00  0.000000E+00 
 0.000000E+00  1.000000E+00  1.000000E+00  1.000000E+00  1.000000E+00  1.000000E+00  1.000000E+00  1.000000E+00  1.000000E+00  1.000000E+00 
 1.000000E+00  1.000000E+00  0.000000E+00  0.000000E+00  0.000000E+00  0.000000E+00  0.000000E+00  0.000000E+00  0.000000E+00  0.000000E+00 
 0.000000E+00  0.000000E+00  0.000000E+00  1.000000E+00  1.000000E+00  1.000000E+00  1.000000E+00  1.000000E+00  1.000000E+00  1.000000E+00 
 1.000000E+00  1.000000E+00  1.000000E+00  1.000000E+00  0.000000E+00  0.000000E+00  0.000000E+00  0.000000E+00  0.000000E+00  0.000000E+00 
 0.000000E+00  0.000000E+00  0.000000E+00  0.000000E+00  0.000000E+00  1.000000E+00  1.000000E+00  1.000000E+00  1.000000E+00  1.000000E+00 
 1.000000E+00  1.000000E+00  1.000000E+00  1.000000E+00  1.000000E+00  1.000000E+00  0.000000E+00  0.000000E+00  0.000000E+00  0.000000E+00 
 0.000000E+00  0.000000E+00  0.000000E+00  0.000000E+00  0.000000E+00  0.000000E+00  0.000000E+00  1.000000E+00  1.000000E+00  1.000000E+00 
 1.000000E+00  1.000000E+00  1.000000E+00  1.000000E+00  1.000000E+00  1.000000E+00  1.000000E+00  1.000000E+00  0.000000E+00  0.000000E+00 
 0.000000E+00  0.000000E+00  0.000000E+00  0.000000E+00  0.000000E+00  0.000000E+00  0.000000E+00  0.000000E+00  0.000000E+00  1.000000E+00 
 1.000000E+00  1.000000E+00  1.000000E+00  1.000000E+00  1.000000E+00  1.000000E+00  1.000000E+00  1.000000E+00  1.000000E+00  1.000000E+00 
 0.000000E+00  0.000000E+00  0.000000E+00  0.000000E+00  0.000000E+00  0.000000E+00  0.000000E+00  0.000000E+00  0.000000E+00  0.000000E+00 
 0.000000E+00  1.000000E+00  1.000000E+00  1.000000E+00  1.000000E+00  1.000000E+00  1.000000E+00  1.000000E+00  1.000000E+00  1.000000E+00 
 1.000000E+00  1.000000E+00 
 0.000000E+00  0.000000E+00  0.000000E+00  0.000000E+00  0.000000E+00  0.000000E+00  0.000000E+00  0.000000E+00  0.000000E+00  0.000000E+00 
 0.000000E+00  0.000000E+00  0.000000E+00  0.000000E+00  0.000000E+00  0.000000E+00  0.000000E+00  0.000000E+00  0.000000E+00  0.000000E+00 
 0.000000E+00  0.000000E+00  1.000000E+00  1.000000E+00  1.000000E+00  1.000000E+00  1.000000E+00  1.000000E+00  1.000000E+00  1.000000E+00 
 1.000000E+00  1.000000E+00  1.000000E+00  1.000000E+00  1.000000E+00  1.000000E+00  1.000000E+00  1.000000E+00  1.000000E+00  1.000000E+00 
 1.000000E+00  1.000000E+00  1.000000E+00  1.000000E+00  2.000000E+00  2.000000E+00  2.000000E+00  2.000000E+00  2.000000E+00  2.000000E+00 
 2.000000E+00  2.000000E+00  2.000000E+00  2.000000E+00  2.000000E+00  2.000000E+00  2.000000E+00  2.000000E+00  2.000000E+00  2.000000E+00 
 2.000000E+00  2.000000E+00  2.000000E+00  2.000000E+00  2.000000E+00  2.000000E+00  3.000000E+00  3.000000E+00  3.000000E+00  3.000000E+00 
 3.000000E+00  3.000000E+00  3.000000E+00  3.000000E+00  3.000000E+00  3.000000E+00  3.000000E+00  3.000000E+00  3.000000E+00  3.000000E+00 
 3.000000E+00  3.000000E+00  3.000000E+00  3.000000E+00  3.000000E+00  3.000000E+00  3.000000E+00  3.000000E+00  4.000000E+00  4.000000E+00 
 4.000000E+00  4.000000E+00  4.000000E+00  4.000000E+00  4.000000E+00  4.000000E+00  4.000000E+00  4.000000E+00  4.000000E+00  4.000000E+00 
 4.000000E+00  4.000000E+00  4.000000E+00  4.000000E+00  4.000000E+00  4.000000E+00  4.000000E+00  4.000000E+00  4.000000E+00  4.000000E+00 
 5.000000E+00  5.000000E+00  5.000000E+00  5.000000E+00  5.000000E+00  5.000000E+00  5.000000E+00  5.000000E+00  5.000000E+00  5.000000E+00 
 5.000000E+00  5.000000E+00  5.000000E+00  5.000000E+00  5.000000E+00  5.000000E+00  5.000000E+00  5.000000E+00  5.000000E+00  5.000000E+00 
 5.000000E+00  5.000000E+00  6.000000E+00  6.000000E+00  6.000000E+00  6.000000E+00  6.000000E+00  6.000000E+00  6.000000E+00  6.000000E+00 
 6.000000E+00  6.000000E+00  6.000000E+00  6.000000E+00  6.000000E+00  6.000000E+00  6.000000E+00  6.000000E+00  6.000000E+00  6.000000E+00 
 6.000000E+00  6.000000E+00  6.000000E+00  6.000000E+00  7.000000E+00  7.000000E+00  7.000000E+00  7.000000E+00  7.000000E+00  7.000000E+00 
 7.000000E+00  7.000000E+00  7.000000E+00  7.000000E+00  7.000000E+00  7.000000E+00  7.000000E+00  7.000000E+00  7.000000E+00  7.000000E+00 
 7.000000E+00  7.000000E+00  7.000000E+00  7.000000E+00  7.000000E+00  7.000000E+00  8.000000E+00  8.000000E+00  8.000000E+00  8.000000E+00 
 8.000000E+00  8.000000E+00  8.000000E+00  8.000000E+00  8.000000E+00  8.000000E+00  8.000000E+00  8.000000E+00  8.000000E+00  8.000000E+00 
 8.000000E+00  8.000000E+00  8.000000E+00  8.000000E+00  8.000000E+00  8.000000E+00  8.000000E+00  8.000000E+00  9.000000E+00  9.000000E+00 
 9.000000E+00  9.000000E+00  9.000000E+00  9.000000E+00  9.000000E+00  9.000000E+00  9.000000E+00  9.000000E+00  9.000000E+00  9.000000E+00 
 9.000000E+00  9.000000E+00  9.000000E+00  9.000000E+00  9.000000E+00  9.000000E+00  9.000000E+00  9.000000E+00  9.000000E+00  9.000000E+00 
 1.000000E+01  1.000000E+01  1.000000E+01  1.000000E+01  1.000000E+01  1.000000E+01  1.000000E+01  1.000000E+01  1.000000E+01  1.000000E+01 
 1.000000E+01  1.000000E+01  1.000000E+01  1.000000E+01  1.000000E+01  1.000000E+01  1.000000E+01  1.000000E+01  1.000000E+01  1.000000E+01 
 1.000000E+01  1.000000E+01 
 1.170159E+05  1.189772E+05  1.209386E+05  1.229000E+05  1.248613E+05  1.268227E+05  1.287840E+05  1.307454E+05  1.327068E+05  1.346681E+05
 1.072091E+05  1.091704E+05  1.111318E+05  1.130932E+05  1.150545E+05  1.170159E+05  1.189772E+05  1.209386E+05  1.229000E+05  1.248613E+05
 9.740228E+04  9.936364E+04  1.013250E+05  1.032864E+05  1.052477E+05  1.072091E+05  1.091704E+05  1.111318E+05  1.130932E+05  1.150545E+05
 8.759548E+04  8.955684E+04  9.151820E+04  9.347956E+04  9.544092E+04  9.740228E+04  9.936364E+04  1.013250E+05  1.032864E+05  1.052477E+05
 7.778868E+04  7.975004E+04  8.171140E+04  8.367276E+04  8.563412E+04  8.759548E+04  8.955684E+04  9.151820E+04  9.347956E+04  9.544092E+04
 6.798188E+04  6.994324E+04  7.190460E+04  7.386596E+04  7.582732E+04  7.778868E+04  7.975004E+04  8.171140E+04  8.367276E+04  8.563412E+04
 5.817508E+04  6.013644E+04  6.209780E+04  6.405916E+04  6.602052E+04  6.798188E+04  6.994324E+04  7.190460E+04  7.386596E+04  7.582732E+04
 4.836828E+04  5.032964E+04  5.229100E+04  5.425236E+04  5.621372E+04  5.817508E+04  6.013644E+04  6.209780E+04  6.405916E+04  6.602052E+04
 3.856148E+04  4.052284E+04  4.248420E+04  4.444556E+04  4.640692E+04  4.836828E+04  5.032964E+04  5.229100E+04  5.425236E+04  5.621372E+04
 2.875468E+04  3.071604E+04  3.267740E+04  3.463876E+04  3.660012E+04  3.856148E+04  4.052284E+04  4.248420E+04  4.444556E+04  4.640692E+04
 1.000000E+00  1.000000E+00  1.000000E+00  1.000000E+00  1.000000E+00  1.000000E+00  1.000000E+00  1.000000E+00  1.000000E+00  1.000000E+00
 1.000000E+00  1.000000E+00  1.000000E+00  1.000000E+00  1.000000E+00  1.000000E+00  1.000000E+00  1.000000E+00  1.000000E+00  1.000000E+00
 9.378431E-01  9.831728E-01  1.000000E+00  1.000000E+00  1.000000E+00  1.000000E+00  1.000000E+00  1.000000E+00  1.000000E+00  1.000000E+00
 6.298706E-01  6.827842E-01  7.425731E-01  8.080889E-01  8.756822E-01  9.378431E-01  9.831728E-01  1.000000E+00  1.000000E+00  1.000000E+00
 4.519391E-01  4.784725E-01  5.087982E-01  5.436127E-01  5.837006E-01  6.298706E-01  6.827842E-01  7.425731E-01  8.080889E-01  8.756822E-01
 3.585435E-01  3.732528E-01  3.896362E-01  4.079739E-01  4.286047E-01  4.519391E-01  4.784725E-01  5.087982E-01  5.436127E-01  5.837006E-01
 3.031900E-01  3.123387E-01  3.223223E-01  3.332559E-01  3.452757E-01  3.585435E-01  3.732528E-01  3.896362E-01  4.079739E-01  4.286047E-01
 2.669988E-01  2.731882E-01  2.798442E-01  2.870203E-01  2.947784E-01  3.031900E-01  3.123387E-01  3.223223E-01  3.332559E-01  3.452757E-01
 2.416093E-01  2.460588E-01  2.507929E-01  2.558393E-01  2.612293E-01  2.669988E-01  2.731882E-01  2.798442E-01  2.870203E-01  2.947784E-01
 2.228567E-01  2.262032E-01  2.297351E-01  2.334681E-01  2.374196E-01  2.416093E-01  2.460588E-01  2.507929E-01  2.558393E-01  2.612293E-01
 1  1  1  1  1  1  1  1  1  1
 1  1  1  1  1  1  1  1  1  1
 1  1  1  1  1  1  1  1  1  1
 1  1  1  1  1  1  1  1  1  1
 1  1  1  1  1  1  1  1  1  1
 1  1  1  1  1  1  1  1  1  1
 1  1  1  1  1  1  1  1  1  1
 1  1  1  1  1  1  1  1  1  1
 1  1  1  1  1  1  1  1  1  1
 1  1  1  1  1  1  1  1  1  1
