TITLE = "  1.00000E+02 [d]"
VARIABLES="X [m]","Y [m]","Z [m]","Liquid Pressure [Pa]","Liquid Saturation","Material ID"
ZONE T="1.00000E+02", I=13, J=2, K=13, VARLOCATION=([4-6]=CELLCENTERED), DATAPACKING=BLOCK
-1.000000E+00  0.000000E+00  1.000000E+00  2.000000E+00  3.000000E+00  4.000000E+00  5.000000E+00  6.000000E+00  7.000000E+00  8.000000E+00 
 9.000000E+00  1.000000E+01  1.100000E+01 -1.000000E+00  0.000000E+00  1.000000E+00  2.000000E+00  3.000000E+00  4.000000E+00  5.000000E+00 
 6.000000E+00  7.000000E+00  8.000000E+00  9.000000E+00  1.000000E+01  1.100000E+01 -1.000000E+00  0.000000E+00  1.000000E+00  2.000000E+00 
 3.000000E+00  4.000000E+00  5.000000E+00  6.000000E+00  7.000000E+00  8.000000E+00  9.000000E+00  1.000000E+01  1.100000E+01 -1.000000E+00 
 0.000000E+00  1.000000E+00  2.000000E+00  3.000000E+00  4.000000E+00  5.000000E+00  6.000000E+00  7.000000E+00  8.000000E+00  9.000000E+00 
 1.000000E+01  1.100000E+01 -1.000000E+00  0.000000E+00  1.000000E+00  2.000000E+00  3.000000E+00  4.000000E+00  5.000000E+00  6.000000E+00 
 7.000000E+00  8.000000E+00  9.000000E+00  1.000000E+01  1.100000E+01 -1.000000E+00  0.000000E+00  1.000000E+00  2.000000E+00  3.000000E+00 
 4.000000E+00  5.000000E+00  6.000000E+00  7.000000E+00  8.000000E+00  9.000000E+00  1.000000E+01  1.100000E+01 -1.000000E+00  0.000000E+00 
 1.000000E+00  2.000000E+00  3.000000E+00  4.000000E+00  5.000000E+00  6.000000E+00  7.000000E+00  8.000000E+00  9.000000E+00  1.000000E+01 
 1.100000E+01 -1.000000E+00  0.000000E+00  1.000000E+00  2.000000E+00  3.000000E+00  4.000000E+00  5.000000E+00  6.000000E+00  7.000000E+00 
 8.000000E+00  9.000000E+00  1.000000E+01  1.100000E+01 -1.000000E+00  0.000000E+00  1.000000E+00  2.000000E+00  3.000000E+00  4.000000E+00 
 5.000000E+00  6.000000E+00  7.000000E+00  8.000000E+00  9.000000E+00  1.000000E+01  1.100000E+01 -1.000000E+00  0.000000E+00  1.000000E+00 
 2.000000E+00  3.000000E+00  4.000000E+00  5.000000E+00  6.000000E+00  7.000000E+00  8.000000E+00  9.000000E+00  1.000000E+01  1.100000E+01 
-1.000000E+00  0.000000E+00  1.000000E+00  2.000000E+00  3.000000E+00  4.000000E+00  5.000000E+00  6.000000E+00  7.000000E+00  8.000000E+00 
 9.000000E+00  1.000000E+01  1.100000E+01 -1.000000E+00  0.000000E+00  1.000000E+00  2.000000E+00  3.000000E+00  4.000000E+00  5.000000E+00 
 6.000000E+00  7.000000E+00  8.000000E+00  9.000000E+00  1.000000E+01  1.100000E+01 -1.000000E+00  0.000000E+00  1.000000E+00  2.000000E+00 
 3.000000E+00  4.000000E+00  5.000000E+00  6.000000E+00  7.000000E+00  8.000000E+00  9.000000E+00  1.000000E+01  1.100000E+01 -1.000000E+00 
 0.000000E+00  1.000000E+00  2.000000E+00  3.000000E+00  4.000000E+00  5.000000E+00  6.000000E+00  7.000000E+00  8.000000E+00  9.000000E+00 
 1.000000E+01  1.100000E+01 -1.000000E+00  0.000000E+00  1.000000E+00  2.000000E+00  3.000000E+00  4.000000E+00  5.000000E+00  6.000000E+00 
 7.000000E+00  8.000000E+00  9.000000E+00  1.000000E+01  1.100000E+01 -1.000000E+00  0.000000E+00  1.000000E+00  2.000000E+00  3.000000E+00 
 4.000000E+00  5.000000E+00  6.000000E+00  7.000000E+00  8.000000E+00  9.000000E+00  1.000000E+01  1.100000E+01 -1.000000E+00  0.000000E+00 
 1.000000E+00  2.000000E+00  3.000000E+00  4.000000E+00  5.000000E+00  6.000000E+00  7.000000E+00  8.000000E+00  9.000000E+00  1.000000E+01 
 1.100000E+01 -1.000000E+00  0.000000E+00  1.000000E+00  2.000000E+00  3.000000E+00  4.000000E+00  5.000000E+00  6.000000E+00  7.000000E+00 
 8.000000E+00  9.000000E+00  1.000000E+01  1.100000E+01 -1.000000E+00  0.000000E+00  1.000000E+00  2.000000E+00  3.000000E+00  4.000000E+00 
 5.000000E+00  6.000000E+00  7.000000E+00  8.000000E+00  9.000000E+00  1.000000E+01  1.100000E+01 -1.000000E+00  0.000000E+00  1.000000E+00 
 2.000000E+00  3.000000E+00  4.000000E+00  5.000000E+00  6.000000E+00  7.000000E+00  8.000000E+00  9.000000E+00  1.000000E+01  1.100000E+01 
-1.000000E+00  0.000000E+00  1.000000E+00  2.000000E+00  3.000000E+00  4.000000E+00  5.000000E+00  6.000000E+00  7.000000E+00  8.000000E+00 
 9.000000E+00  1.000000E+01  1.100000E+01 -1.000000E+00  0.000000E+00  1.000000E+00  2.000000E+00  3.000000E+00  4.000000E+00  5.000000E+00 
 6.000000E+00  7.000000E+00  8.000000E+00  9.000000E+00  1.000000E+01  1.100000E+01 -1.000000E+00  0.000000E+00  1.000000E+00  2.000000E+00 
 3.000000E+00  4.000000E+00  5.000000E+00  6.000000E+00  7.000000E+00  8.000000E+00  9.000000E+00  1.000000E+01  1.100000E+01 -1.000000E+00 
 0.000000E+00  1.000000E+00  2.000000E+00  3.000000E+00  4.000000E+00  5.000000E+00  6.000000E+00  7.000000E+00  8.000000E+00  9.000000E+00 
 1.000000E+01  1.100000E+01 -1.000000E+00  0.000000E+00  1.000000E+00  2.000000E+00  3.000000E+00  4.000000E+00  5.000000E+00  6.000000E+00 
 7.000000E+00  8.000000E+00  9.000000E+00  1.000000E+01  1.100000E+01 -1.000000E+00  0.000000E+00  1.000000E+00  2.000000E+00  3.000000E+00 
 4.000000E+00  5.000000E+00  6.000000E+00  7.000000E+00  8.000000E+00  9.000000E+00  1.000000E+01  1.100000E+01 
 0.000000E+00  0.000000E+00  0.000000E+00  0.000000E+00  0.000000E+00  0.000000E+00  0.000000E+00  0.000000E+00  0.000000E+00  0.000000E+00 
 0.000000E+00  0.000000E+00  0.000000E+00  1.000000E+00  1.000000E+00  1.000000E+00  1.000000E+00  1.000000E+00  1.000000E+00  1.000000E+00 
 1.000000E+00  1.000000E+00  1.000000E+00  1.000000E+00  1.000000E+00  1.000000E+00  0.000000E+00  0.000000E+00  0.000000E+00  0.000000E+00 
 0.000000E+00  0.000000E+00  0.000000E+00  0.000000E+00  0.000000E+00  0.000000E+00  0.000000E+00  0.000000E+00  0.000000E+00  1.000000E+00 
 1.000000E+00  1.000000E+00  1.000000E+00  1.000000E+00  1.000000E+00  1.000000E+00  1.000000E+00  1.000000E+00  1.000000E+00  1.000000E+00 
 1.000000E+00  1.000000E+00  0.000000E+00  0.000000E+00  0.000000E+00  0.000000E+00  0.000000E+00  0.000000E+00  0.000000E+00  0.000000E+00 
 0.000000E+00  0.000000E+00  0.000000E+00  0.000000E+00  0.000000E+00  1.000000E+00  1.000000E+00  1.000000E+00  1.000000E+00  1.000000E+00 
 1.000000E+00  1.000000E+00  1.000000E+00  1.000000E+00  1.000000E+00  1.000000E+00  1.000000E+00  1.000000E+00  0.000000E+00  0.000000E+00 
 0.000000E+00  0.000000E+00  0.000000E+00  0.000000E+00  0.000000E+00  0.000000E+00  0.000000E+00  0.000000E+00  0.000000E+00  0.000000E+00 
 0.000000E+00  1.000000E+00  1.000000E+00  1.000000E+00  1.000000E+00  1.000000E+00  1.000000E+00  1.000000E+00  1.000000E+00  1.000000E+00 
 1.000000E+00  1.000000E+00  1.000000E+00  1.000000E+00  0.000000E+00  0.000000E+00  0.000000E+00  0.000000E+00  0.000000E+00  0.000000E+00 
 0.000000E+00  0.000000E+00  0.000000E+00  0.000000E+00  0.000000E+00  0.000000E+00  0.000000E+00  1.000000E+00  1.000000E+00  1.000000E+00 
 1.000000E+00  1.000000E+00  1.000000E+00  1.000000E+00  1.000000E+00  1.000000E+00  1.000000E+00  1.000000E+00  1.000000E+00  1.000000E+00 
 0.000000E+00  0.000000E+00  0.000000E+00  0.000000E+00  0.000000E+00  0.000000E+00  0.000000E+00  0.000000E+00  0.000000E+00  0.000000E+00 
 0.000000E+00  0.000000E+00  0.000000E+00  1.000000E+00  1.000000E+00  1.000000E+00  1.000000E+00  1.000000E+00  1.000000E+00  1.000000E+00 
 1.000000E+00  1.000000E+00  1.000000E+00  1.000000E+00  1.000000E+00  1.000000E+00  0.000000E+00  0.000000E+00  0.000000E+00  0.000000E+00 
 0.000000E+00  0.000000E+00  0.000000E+00  0.000000E+00  0.000000E+00  0.000000E+00  0.000000E+00  0.000000E+00  0.000000E+00  1.000000E+00 
 1.000000E+00  1.000000E+00  1.000000E+00  1.000000E+00  1.000000E+00  1.000000E+00  1.000000E+00  1.000000E+00  1.000000E+00  1.000000E+00 
 1.000000E+00  1.000000E+00  0.000000E+00  0.000000E+00  0.000000E+00  0.000000E+00  0.000000E+00  0.000000E+00  0.000000E+00  0.000000E+00 
 0.000000E+00  0.000000E+00  0.000000E+00  0.000000E+00  0.000000E+00  1.000000E+00  1.000000E+00  1.000000E+00  1.000000E+00  1.000000E+00 
 1.000000E+00  1.000000E+00  1.000000E+00  1.000000E+00  1.000000E+00  1.000000E+00  1.000000E+00  1.000000E+00  0.000000E+00  0.000000E+00 
 0.000000E+00  0.000000E+00  0.000000E+00  0.000000E+00  0.000000E+00  0.000000E+00  0.000000E+00  0.000000E+00  0.000000E+00  0.000000E+00 
 0.000000E+00  1.000000E+00  1.000000E+00  1.000000E+00  1.000000E+00  1.000000E+00  1.000000E+00  1.000000E+00  1.000000E+00  1.000000E+00 
 1.000000E+00  1.000000E+00  1.000000E+00  1.000000E+00  0.000000E+00  0.000000E+00  0.000000E+00  0.000000E+00  0.000000E+00  0.000000E+00 
 0.000000E+00  0.000000E+00  0.000000E+00  0.000000E+00  0.000000E+00  0.000000E+00  0.000000E+00  1.000000E+00  1.000000E+00  1.000000E+00 
 1.000000E+00  1.000000E+00  1.000000E+00  1.000000E+00  1.000000E+00  1.000000E+00  1.000000E+00  1.000000E+00  1.000000E+00  1.000000E+00 
 0.000000E+00  0.000000E+00  0.000000E+00  0.000000E+00  0.000000E+00  0.000000E+00  0.000000E+00  0.000000E+00  0.000000E+00  0.000000E+00 
 0.000000E+00  0.000000E+00  0.000000E+00  1.000000E+00  1.000000E+00  1.000000E+00  1.000000E+00  1.000000E+00  1.000000E+00  1.000000E+00 
 1.000000E+00  1.000000E+00  1.000000E+00  1.000000E+00  1.000000E+00  1.000000E+00  0.000000E+00  0.000000E+00  0.000000E+00  0.000000E+00 
 0.000000E+00  0.000000E+00  0.000000E+00  0.000000E+00  0.000000E+00  0.000000E+00  0.000000E+00  0.000000E+00  0.000000E+00  1.000000E+00 
 1.000000E+00  1.000000E+00  1.000000E+00  1.000000E+00  1.000000E+00  1.000000E+00  1.000000E+00  1.000000E+00  1.000000E+00  1.000000E+00 
 1.000000E+00  1.000000E+00  0.000000E+00  0.000000E+00  0.000000E+00  0.000000E+00  0.000000E+00  0.000000E+00  0.000000E+00  0.000000E+00 
 0.000000E+00  0.000000E+00  0.000000E+00  0.000000E+00  0.000000E+00  1.000000E+00  1.000000E+00  1.000000E+00  1.000000E+00  1.000000E+00 
 1.000000E+00  1.000000E+00  1.000000E+00  1.000000E+00  1.000000E+00  1.000000E+00  1.000000E+00  1.000000E+00 
-1.000000E+00 -1.000000E+00 -1.000000E+00 -1.000000E+00 -1.000000E+00 -1.000000E+00 -1.000000E+00 -1.000000E+00 -1.000000E+00 -1.000000E+00 
-1.000000E+00 -1.000000E+00 -1.000000E+00 -1.000000E+00 -1.000000E+00 -1.000000E+00 -1.000000E+00 -1.000000E+00 -1.000000E+00 -1.000000E+00 
-1.000000E+00 -1.000000E+00 -1.000000E+00 -1.000000E+00 -1.000000E+00 -1.000000E+00  0.000000E+00  0.000000E+00  0.000000E+00  0.000000E+00 
 0.000000E+00  0.000000E+00  0.000000E+00  0.000000E+00  0.000000E+00  0.000000E+00  0.000000E+00  0.000000E+00  0.000000E+00  0.000000E+00 
 0.000000E+00  0.000000E+00  0.000000E+00  0.000000E+00  0.000000E+00  0.000000E+00  0.000000E+00  0.000000E+00  0.000000E+00  0.000000E+00 
 0.000000E+00  0.000000E+00  1.000000E+00  1.000000E+00  1.000000E+00  1.000000E+00  1.000000E+00  1.000000E+00  1.000000E+00  1.000000E+00 
 1.000000E+00  1.000000E+00  1.000000E+00  1.000000E+00  1.000000E+00  1.000000E+00  1.000000E+00  1.000000E+00  1.000000E+00  1.000000E+00 
 1.000000E+00  1.000000E+00  1.000000E+00  1.000000E+00  1.000000E+00  1.000000E+00  1.000000E+00  1.000000E+00  2.000000E+00  2.000000E+00 
 2.000000E+00  2.000000E+00  2.000000E+00  2.000000E+00  2.000000E+00  2.000000E+00  2.000000E+00  2.000000E+00  2.000000E+00  2.000000E+00 
 2.000000E+00  2.000000E+00  2.000000E+00  2.000000E+00  2.000000E+00  2.000000E+00  2.000000E+00  2.000000E+00  2.000000E+00  2.000000E+00 
 2.000000E+00  2.000000E+00  2.000000E+00  2.000000E+00  3.000000E+00  3.000000E+00  3.000000E+00  3.000000E+00  3.000000E+00  3.000000E+00 
 3.000000E+00  3.000000E+00  3.000000E+00  3.000000E+00  3.000000E+00  3.000000E+00  3.000000E+00  3.000000E+00  3.000000E+00  3.000000E+00 
 3.000000E+00  3.000000E+00  3.000000E+00  3.000000E+00  3.000000E+00  3.000000E+00  3.000000E+00  3.000000E+00  3.000000E+00  3.000000E+00 
 4.000000E+00  4.000000E+00  4.000000E+00  4.000000E+00  4.000000E+00  4.000000E+00  4.000000E+00  4.000000E+00  4.000000E+00  4.000000E+00 
 4.000000E+00  4.000000E+00  4.000000E+00  4.000000E+00  4.000000E+00  4.000000E+00  4.000000E+00  4.000000E+00  4.000000E+00  4.000000E+00 
 4.000000E+00  4.000000E+00  4.000000E+00  4.000000E+00  4.000000E+00  4.000000E+00  5.000000E+00  5.000000E+00  5.000000E+00  5.000000E+00 
 5.000000E+00  5.000000E+00  5.000000E+00  5.000000E+00  5.000000E+00  5.000000E+00  5.000000E+00  5.000000E+00  5.000000E+00  5.000000E+00 
 5.000000E+00  5.000000E+00  5.000000E+00  5.000000E+00  5.000000E+00  5.000000E+00  5.000000E+00  5.000000E+00  5.000000E+00  5.000000E+00 
 5.000000E+00  5.000000E+00  6.000000E+00  6.000000E+00  6.000000E+00  6.000000E+00  6.000000E+00  6.000000E+00  6.000000E+00  6.000000E+00 
 6.000000E+00  6.000000E+00  6.000000E+00  6.000000E+00  6.000000E+00  6.000000E+00  6.000000E+00  6.000000E+00  6.000000E+00  6.000000E+00 
 6.000000E+00  6.000000E+00  6.000000E+00  6.000000E+00  6.000000E+00  6.000000E+00  6.000000E+00  6.000000E+00  7.000000E+00  7.000000E+00 
 7.000000E+00  7.000000E+00  7.000000E+00  7.000000E+00  7.000000E+00  7.000000E+00  7.000000E+00  7.000000E+00  7.000000E+00  7.000000E+00 
 7.000000E+00  7.000000E+00  7.000000E+00  7.000000E+00  7.000000E+00  7.000000E+00  7.000000E+00  7.000000E+00  7.000000E+00  7.000000E+00 
 7.000000E+00  7.000000E+00  7.000000E+00  7.000000E+00  8.000000E+00  8.000000E+00  8.000000E+00  8.000000E+00  8.000000E+00  8.000000E+00 
 8.000000E+00  8.000000E+00  8.000000E+00  8.000000E+00  8.000000E+00  8.000000E+00  8.000000E+00  8.000000E+00  8.000000E+00  8.000000E+00 
 8.000000E+00  8.000000E+00  8.000000E+00  8.000000E+00  8.000000E+00  8.000000E+00  8.000000E+00  8.000000E+00  8.000000E+00  8.000000E+00 
 9.000000E+00  9.000000E+00  9.000000E+00  9.000000E+00  9.000000E+00  9.000000E+00  9.000000E+00  9.000000E+00  9.000000E+00  9.000000E+00 
 9.000000E+00  9.000000E+00  9.000000E+00  9.000000E+00  9.000000E+00  9.000000E+00  9.000000E+00  9.000000E+00  9.000000E+00  9.000000E+00 
 9.000000E+00  9.000000E+00  9.000000E+00  9.000000E+00  9.000000E+00  9.000000E+00  1.000000E+01  1.000000E+01  1.000000E+01  1.000000E+01 
 1.000000E+01  1.000000E+01  1.000000E+01  1.000000E+01  1.000000E+01  1.000000E+01  1.000000E+01  1.000000E+01  1.000000E+01  1.000000E+01 
 1.000000E+01  1.000000E+01  1.000000E+01  1.000000E+01  1.000000E+01  1.000000E+01  1.000000E+01  1.000000E+01  1.000000E+01  1.000000E+01 
 1.000000E+01  1.000000E+01  1.100000E+01  1.100000E+01  1.100000E+01  1.100000E+01  1.100000E+01  1.100000E+01  1.100000E+01  1.100000E+01 
 1.100000E+01  1.100000E+01  1.100000E+01  1.100000E+01  1.100000E+01  1.100000E+01  1.100000E+01  1.100000E+01  1.100000E+01  1.100000E+01 
 1.100000E+01  1.100000E+01  1.100000E+01  1.100000E+01  1.100000E+01  1.100000E+01  1.100000E+01  1.100000E+01 
 0.000000E+00  0.000000E+00  0.000000E+00  0.000000E+00  0.000000E+00  0.000000E+00  0.000000E+00  0.000000E+00  0.000000E+00  0.000000E+00
 0.000000E+00  0.000000E+00  0.000000E+00  1.954703E+05  1.974316E+05  1.993930E+05  2.013544E+05  2.033157E+05  2.052771E+05  2.072384E+05
 2.091998E+05  2.111612E+05  2.131225E+05  0.000000E+00  0.000000E+00  1.856635E+05  1.876248E+05  1.895862E+05  1.915476E+05  1.935089E+05
 1.954703E+05  1.974316E+05  1.993930E+05  2.013544E+05  2.033157E+05  0.000000E+00  0.000000E+00  1.758567E+05  1.778180E+05  1.797794E+05
 1.817408E+05  1.837021E+05  1.856635E+05  1.876248E+05  1.895862E+05  1.915476E+05  1.935089E+05  0.000000E+00  0.000000E+00  1.660499E+05
 1.680112E+05  1.699726E+05  1.719340E+05  1.738953E+05  1.758567E+05  1.778180E+05  1.797794E+05  1.817408E+05  1.837021E+05  0.000000E+00
 0.000000E+00  1.562431E+05  1.582044E+05  1.601658E+05  1.621272E+05  1.640885E+05  1.660499E+05  1.680112E+05  1.699726E+05  1.719340E+05
 1.738953E+05  0.000000E+00  0.000000E+00  1.464363E+05  1.483976E+05  1.503590E+05  1.523204E+05  1.542817E+05  1.562431E+05  1.582044E+05
 1.601658E+05  1.621272E+05  1.640885E+05  0.000000E+00  0.000000E+00  1.366295E+05  1.385908E+05  1.405522E+05  1.425136E+05  1.444749E+05
 1.464363E+05  1.483976E+05  1.503590E+05  1.523204E+05  1.542817E+05  0.000000E+00  0.000000E+00  1.268227E+05  1.287840E+05  1.307454E+05
 1.327068E+05  1.346681E+05  1.366295E+05  1.385908E+05  1.405522E+05  1.425136E+05  1.444749E+05  0.000000E+00  0.000000E+00  1.170159E+05
 1.189772E+05  1.209386E+05  1.229000E+05  1.248613E+05  1.268227E+05  1.287840E+05  1.307454E+05  1.327068E+05  1.346681E+05  0.000000E+00
 0.000000E+00  1.072091E+05  1.091704E+05  1.111318E+05  1.130932E+05  1.150545E+05  1.170159E+05  1.189772E+05  1.209386E+05  1.229000E+05
 1.248613E+05  0.000000E+00  0.000000E+00  0.000000E+00  0.000000E+00  0.000000E+00  0.000000E+00  0.000000E+00  0.000000E+00  0.000000E+00
 0.000000E+00  0.000000E+00  0.000000E+00  0.000000E+00
 0.000000E+00  0.000000E+00  0.000000E+00  0.000000E+00  0.000000E+00  0.000000E+00  0.000000E+00  0.000000E+00  0.000000E+00  0.000000E+00
 0.000000E+00  0.000000E+00  0.000000E+00  1.000000E+00  1.000000E+00  1.000000E+00  1.000000E+00  1.000000E+00  1.000000E+00  1.000000E+00
 1.000000E+00  1.000000E+00  1.000000E+00  0.000000E+00  0.000000E+00  1.000000E+00  1.000000E+00  1.000000E+00  1.000000E+00  1.000000E+00
 1.000000E+00  1.000000E+00  1.000000E+00  1.000000E+00  1.000000E+00  0.000000E+00  0.000000E+00  1.000000E+00  1.000000E+00  1.000000E+00
 1.000000E+00  1.000000E+00  1.000000E+00  1.000000E+00  1.000000E+00  1.000000E+00  1.000000E+00  0.000000E+00  0.000000E+00  1.000000E+00
 1.000000E+00  1.000000E+00  1.000000E+00  1.000000E+00  1.000000E+00  1.000000E+00  1.000000E+00  1.000000E+00  1.000000E+00  0.000000E+00
 0.000000E+00  1.000000E+00  1.000000E+00  1.000000E+00  1.000000E+00  1.000000E+00  1.000000E+00  1.000000E+00  1.000000E+00  1.000000E+00
 1.000000E+00  0.000000E+00  0.000000E+00  1.000000E+00  1.000000E+00  1.000000E+00  1.000000E+00  1.000000E+00  1.000000E+00  1.000000E+00
 1.000000E+00  1.000000E+00  1.000000E+00  0.000000E+00  0.000000E+00  1.000000E+00  1.000000E+00  1.000000E+00  1.000000E+00  1.000000E+00
 1.000000E+00  1.000000E+00  1.000000E+00  1.000000E+00  1.000000E+00  0.000000E+00  0.000000E+00  1.000000E+00  1.000000E+00  1.000000E+00
 1.000000E+00  1.000000E+00  1.000000E+00  1.000000E+00  1.000000E+00  1.000000E+00  1.000000E+00  0.000000E+00  0.000000E+00  1.000000E+00
 1.000000E+00  1.000000E+00  1.000000E+00  1.000000E+00  1.000000E+00  1.000000E+00  1.000000E+00  1.000000E+00  1.000000E+00  0.000000E+00
 0.000000E+00  1.000000E+00  1.000000E+00  1.000000E+00  1.000000E+00  1.000000E+00  1.000000E+00  1.000000E+00  1.000000E+00  1.000000E+00
 1.000000E+00  0.000000E+00  0.000000E+00  0.000000E+00  0.000000E+00  0.000000E+00  0.000000E+00  0.000000E+00  0.000000E+00  0.000000E+00
 0.000000E+00  0.000000E+00  0.000000E+00  0.000000E+00
 0  0  0  0  0  0  0  0  0  0
 0  0  0  1  1  1  1  1  1  1
 1  1  1  0  0  1  1  1  1  1
 1  1  1  1  1  0  0  1  1  1
 1  1  1  1  1  1  1  0  0  1
 1  1  1  1  1  1  1  1  1  0
 0  1  1  1  1  1  1  1  1  1
 1  0  0  1  1  1  1  1  1  1
 1  1  1  0  0  1  1  1  1  1
 1  1  1  1  1  0  0  1  1  1
 1  1  1  1  1  1  1  0  0  1
 1  1  1  1  1  1  1  1  1  0
 0  1  1  1  1  1  1  1  1  1
 1  0  0  0  0  0  0  0  0  0
 0  0  0  0
