TITLE = "  0.00000E+00 [d]"
VARIABLES="X [m]","Y [m]","Z [m]","Liquid Saturation","Liquid Pressure [Pa]","Liquid Density [kg/m^3]","Temperature [C]","Material ID"
ZONE T="0.00000E+00", I=6, J=6, K=2, VARLOCATION=([4-8]=CELLCENTERED), DATAPACKING=BLOCK
 0.000000E+00  1.000000E+00  2.000000E+00  3.000000E+00  4.000000E+00  5.000000E+00  0.000000E+00  1.000000E+00  2.000000E+00  3.000000E+00 
 4.000000E+00  5.000000E+00  0.000000E+00  1.000000E+00  2.000000E+00  3.000000E+00  4.000000E+00  5.000000E+00  0.000000E+00  1.000000E+00 
 2.000000E+00  3.000000E+00  4.000000E+00  5.000000E+00  0.000000E+00  1.000000E+00  2.000000E+00  3.000000E+00  4.000000E+00  5.000000E+00 
 0.000000E+00  1.000000E+00  2.000000E+00  3.000000E+00  4.000000E+00  5.000000E+00  0.000000E+00  1.000000E+00  2.000000E+00  3.000000E+00 
 4.000000E+00  5.000000E+00  0.000000E+00  1.000000E+00  2.000000E+00  3.000000E+00  4.000000E+00  5.000000E+00  0.000000E+00  1.000000E+00 
 2.000000E+00  3.000000E+00  4.000000E+00  5.000000E+00  0.000000E+00  1.000000E+00  2.000000E+00  3.000000E+00  4.000000E+00  5.000000E+00 
 0.000000E+00  1.000000E+00  2.000000E+00  3.000000E+00  4.000000E+00  5.000000E+00  0.000000E+00  1.000000E+00  2.000000E+00  3.000000E+00 
 4.000000E+00  5.000000E+00 
 0.000000E+00  0.000000E+00  0.000000E+00  0.000000E+00  0.000000E+00  0.000000E+00  1.000000E+00  1.000000E+00  1.000000E+00  1.000000E+00 
 1.000000E+00  1.000000E+00  2.000000E+00  2.000000E+00  2.000000E+00  2.000000E+00  2.000000E+00  2.000000E+00  3.000000E+00  3.000000E+00 
 3.000000E+00  3.000000E+00  3.000000E+00  3.000000E+00  4.000000E+00  4.000000E+00  4.000000E+00  4.000000E+00  4.000000E+00  4.000000E+00 
 5.000000E+00  5.000000E+00  5.000000E+00  5.000000E+00  5.000000E+00  5.000000E+00  0.000000E+00  0.000000E+00  0.000000E+00  0.000000E+00 
 0.000000E+00  0.000000E+00  1.000000E+00  1.000000E+00  1.000000E+00  1.000000E+00  1.000000E+00  1.000000E+00  2.000000E+00  2.000000E+00 
 2.000000E+00  2.000000E+00  2.000000E+00  2.000000E+00  3.000000E+00  3.000000E+00  3.000000E+00  3.000000E+00  3.000000E+00  3.000000E+00 
 4.000000E+00  4.000000E+00  4.000000E+00  4.000000E+00  4.000000E+00  4.000000E+00  5.000000E+00  5.000000E+00  5.000000E+00  5.000000E+00 
 5.000000E+00  5.000000E+00 
 0.000000E+00  0.000000E+00  0.000000E+00  0.000000E+00  0.000000E+00  0.000000E+00  0.000000E+00  0.000000E+00  0.000000E+00  0.000000E+00 
 0.000000E+00  0.000000E+00  0.000000E+00  0.000000E+00  0.000000E+00  0.000000E+00  0.000000E+00  0.000000E+00  0.000000E+00  0.000000E+00 
 0.000000E+00  0.000000E+00  0.000000E+00  0.000000E+00  0.000000E+00  0.000000E+00  0.000000E+00  0.000000E+00  0.000000E+00  0.000000E+00 
 0.000000E+00  0.000000E+00  0.000000E+00  0.000000E+00  0.000000E+00  0.000000E+00  1.000000E+00  1.000000E+00  1.000000E+00  1.000000E+00 
 1.000000E+00  1.000000E+00  1.000000E+00  1.000000E+00  1.000000E+00  1.000000E+00  1.000000E+00  1.000000E+00  1.000000E+00  1.000000E+00 
 1.000000E+00  1.000000E+00  1.000000E+00  1.000000E+00  1.000000E+00  1.000000E+00  1.000000E+00  1.000000E+00  1.000000E+00  1.000000E+00 
 1.000000E+00  1.000000E+00  1.000000E+00  1.000000E+00  1.000000E+00  1.000000E+00  1.000000E+00  1.000000E+00  1.000000E+00  1.000000E+00 
 1.000000E+00  1.000000E+00 
 1.000000E+00  1.000000E+00  1.000000E+00  1.000000E+00  1.000000E+00  1.000000E+00  1.000000E+00  1.000000E+00  1.000000E+00  1.000000E+00
 1.000000E+00  1.000000E+00  1.000000E+00  1.000000E+00  1.000000E+00  1.000000E+00  1.000000E+00  1.000000E+00  1.000000E+00  1.000000E+00
 1.000000E+00  1.000000E+00  1.000000E+00  1.000000E+00  1.000000E+00
 1.013250E+05  1.013250E+05  1.013250E+05  1.013250E+05  1.013250E+05  5.000000E+05  5.000000E+05  5.000000E+05  5.000000E+05  5.000000E+05
 1.000000E+06  1.000000E+06  1.000000E+06  1.000000E+06  1.000000E+06  2.000000E+06  2.000000E+06  2.000000E+06  2.000000E+06  2.000000E+06
 5.000000E+06  5.000000E+06  5.000000E+06  5.000000E+06  5.000000E+06
 9.997943E+02  9.992135E+02  9.971604E+02  9.941238E+02  9.857037E+02  9.999832E+02  9.993983E+02  9.973396E+02  9.943000E+02  9.858797E+02
 1.000220E+03  9.996300E+02  9.975641E+02  9.945208E+02  9.861002E+02  1.000693E+03  1.000093E+03  9.980123E+02  9.949615E+02  9.865403E+02
 1.002107E+03  1.001475E+03  9.993511E+02  9.962772E+02  9.878533E+02
 1.000000E+01  1.500000E+01  2.500000E+01  3.500000E+01  5.500000E+01  1.000000E+01  1.500000E+01  2.500000E+01  3.500000E+01  5.500000E+01
 1.000000E+01  1.500000E+01  2.500000E+01  3.500000E+01  5.500000E+01  1.000000E+01  1.500000E+01  2.500000E+01  3.500000E+01  5.500000E+01
 1.000000E+01  1.500000E+01  2.500000E+01  3.500000E+01  5.500000E+01
 1  1  1  1  1  1  1  1  1  1
 1  1  1  1  1  1  1  1  1  1
 1  1  1  1  1
