TITLE = "  1.00000E+00 [d]"
VARIABLES="X [m]","Y [m]","Z [m]","Liquid Saturation","Liquid Pressure [Pa]","Liquid Density [kg/m^3]","Temperature [C]","Material ID"
ZONE T="1.00000E+00", I=6, J=6, K=2, VARLOCATION=([4-8]=CELLCENTERED), DATAPACKING=BLOCK
 0.000000E+00  1.000000E+00  2.000000E+00  3.000000E+00  4.000000E+00  5.000000E+00  0.000000E+00  1.000000E+00  2.000000E+00  3.000000E+00 
 4.000000E+00  5.000000E+00  0.000000E+00  1.000000E+00  2.000000E+00  3.000000E+00  4.000000E+00  5.000000E+00  0.000000E+00  1.000000E+00 
 2.000000E+00  3.000000E+00  4.000000E+00  5.000000E+00  0.000000E+00  1.000000E+00  2.000000E+00  3.000000E+00  4.000000E+00  5.000000E+00 
 0.000000E+00  1.000000E+00  2.000000E+00  3.000000E+00  4.000000E+00  5.000000E+00  0.000000E+00  1.000000E+00  2.000000E+00  3.000000E+00 
 4.000000E+00  5.000000E+00  0.000000E+00  1.000000E+00  2.000000E+00  3.000000E+00  4.000000E+00  5.000000E+00  0.000000E+00  1.000000E+00 
 2.000000E+00  3.000000E+00  4.000000E+00  5.000000E+00  0.000000E+00  1.000000E+00  2.000000E+00  3.000000E+00  4.000000E+00  5.000000E+00 
 0.000000E+00  1.000000E+00  2.000000E+00  3.000000E+00  4.000000E+00  5.000000E+00  0.000000E+00  1.000000E+00  2.000000E+00  3.000000E+00 
 4.000000E+00  5.000000E+00 
 0.000000E+00  0.000000E+00  0.000000E+00  0.000000E+00  0.000000E+00  0.000000E+00  1.000000E+00  1.000000E+00  1.000000E+00  1.000000E+00 
 1.000000E+00  1.000000E+00  2.000000E+00  2.000000E+00  2.000000E+00  2.000000E+00  2.000000E+00  2.000000E+00  3.000000E+00  3.000000E+00 
 3.000000E+00  3.000000E+00  3.000000E+00  3.000000E+00  4.000000E+00  4.000000E+00  4.000000E+00  4.000000E+00  4.000000E+00  4.000000E+00 
 5.000000E+00  5.000000E+00  5.000000E+00  5.000000E+00  5.000000E+00  5.000000E+00  0.000000E+00  0.000000E+00  0.000000E+00  0.000000E+00 
 0.000000E+00  0.000000E+00  1.000000E+00  1.000000E+00  1.000000E+00  1.000000E+00  1.000000E+00  1.000000E+00  2.000000E+00  2.000000E+00 
 2.000000E+00  2.000000E+00  2.000000E+00  2.000000E+00  3.000000E+00  3.000000E+00  3.000000E+00  3.000000E+00  3.000000E+00  3.000000E+00 
 4.000000E+00  4.000000E+00  4.000000E+00  4.000000E+00  4.000000E+00  4.000000E+00  5.000000E+00  5.000000E+00  5.000000E+00  5.000000E+00 
 5.000000E+00  5.000000E+00 
 0.000000E+00  0.000000E+00  0.000000E+00  0.000000E+00  0.000000E+00  0.000000E+00  0.000000E+00  0.000000E+00  0.000000E+00  0.000000E+00 
 0.000000E+00  0.000000E+00  0.000000E+00  0.000000E+00  0.000000E+00  0.000000E+00  0.000000E+00  0.000000E+00  0.000000E+00  0.000000E+00 
 0.000000E+00  0.000000E+00  0.000000E+00  0.000000E+00  0.000000E+00  0.000000E+00  0.000000E+00  0.000000E+00  0.000000E+00  0.000000E+00 
 0.000000E+00  0.000000E+00  0.000000E+00  0.000000E+00  0.000000E+00  0.000000E+00  1.000000E+00  1.000000E+00  1.000000E+00  1.000000E+00 
 1.000000E+00  1.000000E+00  1.000000E+00  1.000000E+00  1.000000E+00  1.000000E+00  1.000000E+00  1.000000E+00  1.000000E+00  1.000000E+00 
 1.000000E+00  1.000000E+00  1.000000E+00  1.000000E+00  1.000000E+00  1.000000E+00  1.000000E+00  1.000000E+00  1.000000E+00  1.000000E+00 
 1.000000E+00  1.000000E+00  1.000000E+00  1.000000E+00  1.000000E+00  1.000000E+00  1.000000E+00  1.000000E+00  1.000000E+00  1.000000E+00 
 1.000000E+00  1.000000E+00 
 1.000000E+00  1.000000E+00  1.000000E+00  1.000000E+00  1.000000E+00  1.000000E+00  1.000000E+00  1.000000E+00  1.000000E+00  1.000000E+00
 1.000000E+00  1.000000E+00  1.000000E+00  1.000000E+00  1.000000E+00  1.000000E+00  1.000000E+00  1.000000E+00  1.000000E+00  1.000000E+00
 1.000000E+00  1.000000E+00  1.000000E+00  1.000000E+00  1.000000E+00
 1.704364E+06  1.704397E+06  1.704443E+06  1.704484E+06  1.704510E+06  1.704506E+06  1.704529E+06  1.704561E+06  1.704589E+06  1.704607E+06
 1.704759E+06  1.704763E+06  1.704768E+06  1.704773E+06  1.704776E+06  1.705086E+06  1.705064E+06  1.705031E+06  1.705001E+06  1.704981E+06
 1.705402E+06  1.705352E+06  1.705276E+06  1.705209E+06  1.705159E+06
 1.000527E+03  9.998924E+02  9.978027E+02  9.945705E+02  9.867090E+02  1.000529E+03  9.999034E+02  9.978262E+02  9.946151E+02  9.867318E+02
 1.000534E+03  9.999200E+02  9.978628E+02  9.946861E+02  9.867710E+02  1.000538E+03  9.999339E+02  9.979054E+02  9.947642E+02  9.868942E+02
 1.000545E+03  9.999538E+02  9.979626E+02  9.948690E+02  9.870807E+02
 1.030298E+01  1.541250E+01  2.529597E+01  3.574430E+01  5.438646E+01  1.027189E+01  1.534261E+01  2.520628E+01  3.561793E+01  5.433957E+01
 1.022724E+01  1.523585E+01  2.506623E+01  3.541639E+01  5.425872E+01  1.018329E+01  1.514633E+01  2.490263E+01  3.519337E+01  5.400401E+01
 1.010264E+01  1.501682E+01  2.468091E+01  3.489233E+01  5.361648E+01
 1  1  1  1  1  1  1  1  1  1
 1  1  1  1  1  1  1  1  1  1
 1  1  1  1  1
