TITLE = "  5.00000E+00 [d]"
VARIABLES="X [m]","Y [m]","Z [m]","Liquid Pressure [Pa]","Liquid Saturation","Material ID"
ZONE T="5.00000E+00", I=1, J=1, K=100, DATAPACKING=POINT
 5.000000E-01  5.000000E-01  5.000000E-02  1.111303E+05  1.000000E+00    1 
 5.000000E-01  5.000000E-01  1.500000E-01  1.111830E+05  1.000000E+00    1 
 5.000000E-01  5.000000E-01  2.500000E-01  1.112357E+05  1.000000E+00    1 
 5.000000E-01  5.000000E-01  3.500000E-01  1.112884E+05  1.000000E+00    1 
 5.000000E-01  5.000000E-01  4.500000E-01  1.113411E+05  1.000000E+00    1 
 5.000000E-01  5.000000E-01  5.500000E-01  1.113938E+05  1.000000E+00    1 
 5.000000E-01  5.000000E-01  6.500000E-01  1.114465E+05  1.000000E+00    1 
 5.000000E-01  5.000000E-01  7.500000E-01  1.114992E+05  1.000000E+00    1 
 5.000000E-01  5.000000E-01  8.500000E-01  1.115519E+05  1.000000E+00    1 
 5.000000E-01  5.000000E-01  9.500000E-01  1.116046E+05  1.000000E+00    1 
 5.000000E-01  5.000000E-01  1.050000E+00  1.116573E+05  1.000000E+00    1 
 5.000000E-01  5.000000E-01  1.150000E+00  1.117100E+05  1.000000E+00    1 
 5.000000E-01  5.000000E-01  1.250000E+00  1.117627E+05  1.000000E+00    1 
 5.000000E-01  5.000000E-01  1.350000E+00  1.118154E+05  1.000000E+00    1 
 5.000000E-01  5.000000E-01  1.450000E+00  1.118681E+05  1.000000E+00    1 
 5.000000E-01  5.000000E-01  1.550000E+00  1.119207E+05  1.000000E+00    1 
 5.000000E-01  5.000000E-01  1.650000E+00  1.119734E+05  1.000000E+00    1 
 5.000000E-01  5.000000E-01  1.750000E+00  1.120261E+05  1.000000E+00    1 
 5.000000E-01  5.000000E-01  1.850000E+00  1.120788E+05  1.000000E+00    1 
 5.000000E-01  5.000000E-01  1.950000E+00  1.121315E+05  1.000000E+00    1 
 5.000000E-01  5.000000E-01  2.050000E+00  1.121842E+05  1.000000E+00    1 
 5.000000E-01  5.000000E-01  2.150000E+00  1.122369E+05  1.000000E+00    1 
 5.000000E-01  5.000000E-01  2.250000E+00  1.122896E+05  1.000000E+00    1 
 5.000000E-01  5.000000E-01  2.350000E+00  1.123423E+05  1.000000E+00    1 
 5.000000E-01  5.000000E-01  2.450000E+00  1.123950E+05  1.000000E+00    1 
 5.000000E-01  5.000000E-01  2.550000E+00  1.124477E+05  1.000000E+00    1 
 5.000000E-01  5.000000E-01  2.650000E+00  1.125004E+05  1.000000E+00    1 
 5.000000E-01  5.000000E-01  2.750000E+00  1.125531E+05  1.000000E+00    1 
 5.000000E-01  5.000000E-01  2.850000E+00  1.126058E+05  1.000000E+00    1 
 5.000000E-01  5.000000E-01  2.950000E+00  1.126585E+05  1.000000E+00    1 
 5.000000E-01  5.000000E-01  3.050000E+00  1.127112E+05  1.000000E+00    1 
 5.000000E-01  5.000000E-01  3.150000E+00  1.127639E+05  1.000000E+00    1 
 5.000000E-01  5.000000E-01  3.250000E+00  1.128166E+05  1.000000E+00    1 
 5.000000E-01  5.000000E-01  3.350000E+00  1.128692E+05  1.000000E+00    1 
 5.000000E-01  5.000000E-01  3.450000E+00  1.129219E+05  1.000000E+00    1 
 5.000000E-01  5.000000E-01  3.550000E+00  1.129746E+05  1.000000E+00    1 
 5.000000E-01  5.000000E-01  3.650000E+00  1.130273E+05  1.000000E+00    1 
 5.000000E-01  5.000000E-01  3.750000E+00  1.130800E+05  1.000000E+00    1 
 5.000000E-01  5.000000E-01  3.850000E+00  1.131327E+05  1.000000E+00    1 
 5.000000E-01  5.000000E-01  3.950000E+00  1.131854E+05  1.000000E+00    1 
 5.000000E-01  5.000000E-01  4.050000E+00  1.132381E+05  1.000000E+00    1 
 5.000000E-01  5.000000E-01  4.150000E+00  1.132908E+05  1.000000E+00    1 
 5.000000E-01  5.000000E-01  4.250000E+00  1.133435E+05  1.000000E+00    1 
 5.000000E-01  5.000000E-01  4.350000E+00  1.133962E+05  1.000000E+00    1 
 5.000000E-01  5.000000E-01  4.450000E+00  1.134489E+05  1.000000E+00    1 
 5.000000E-01  5.000000E-01  4.550000E+00  1.135016E+05  1.000000E+00    1 
 5.000000E-01  5.000000E-01  4.650000E+00  1.135543E+05  1.000000E+00    1 
 5.000000E-01  5.000000E-01  4.750000E+00  1.136070E+05  1.000000E+00    1 
 5.000000E-01  5.000000E-01  4.850000E+00  1.136596E+05  1.000000E+00    1 
 5.000000E-01  5.000000E-01  4.950000E+00  1.137123E+05  1.000000E+00    1 
 5.000000E-01  5.000000E-01  5.050000E+00  1.137650E+05  1.000000E+00    1 
 5.000000E-01  5.000000E-01  5.150000E+00  1.138177E+05  1.000000E+00    1 
 5.000000E-01  5.000000E-01  5.250000E+00  1.138704E+05  1.000000E+00    1 
 5.000000E-01  5.000000E-01  5.350000E+00  1.139231E+05  1.000000E+00    1 
 5.000000E-01  5.000000E-01  5.450000E+00  1.139758E+05  1.000000E+00    1 
 5.000000E-01  5.000000E-01  5.550000E+00  1.140285E+05  1.000000E+00    1 
 5.000000E-01  5.000000E-01  5.650000E+00  1.140812E+05  1.000000E+00    1 
 5.000000E-01  5.000000E-01  5.750000E+00  1.141339E+05  1.000000E+00    1 
 5.000000E-01  5.000000E-01  5.850000E+00  1.141866E+05  1.000000E+00    1 
 5.000000E-01  5.000000E-01  5.950000E+00  1.142393E+05  1.000000E+00    1 
 5.000000E-01  5.000000E-01  6.050000E+00  1.142920E+05  1.000000E+00    1 
 5.000000E-01  5.000000E-01  6.150000E+00  1.143447E+05  1.000000E+00    1 
 5.000000E-01  5.000000E-01  6.250000E+00  1.143973E+05  1.000000E+00    1 
 5.000000E-01  5.000000E-01  6.350000E+00  1.144500E+05  1.000000E+00    1 
 5.000000E-01  5.000000E-01  6.450000E+00  1.145027E+05  1.000000E+00    1 
 5.000000E-01  5.000000E-01  6.550000E+00  1.145554E+05  1.000000E+00    1 
 5.000000E-01  5.000000E-01  6.650000E+00  1.146081E+05  1.000000E+00    1 
 5.000000E-01  5.000000E-01  6.750000E+00  1.146608E+05  1.000000E+00    1 
 5.000000E-01  5.000000E-01  6.850000E+00  1.147135E+05  1.000000E+00    1 
 5.000000E-01  5.000000E-01  6.950000E+00  1.147662E+05  1.000000E+00    1 
 5.000000E-01  5.000000E-01  7.050000E+00  1.148189E+05  1.000000E+00    1 
 5.000000E-01  5.000000E-01  7.150000E+00  1.148716E+05  1.000000E+00    1 
 5.000000E-01  5.000000E-01  7.250000E+00  1.149243E+05  1.000000E+00    1 
 5.000000E-01  5.000000E-01  7.350000E+00  1.149770E+05  1.000000E+00    1 
 5.000000E-01  5.000000E-01  7.450000E+00  1.150296E+05  1.000000E+00    1 
 5.000000E-01  5.000000E-01  7.550000E+00  1.150823E+05  1.000000E+00    1 
 5.000000E-01  5.000000E-01  7.650000E+00  1.151350E+05  1.000000E+00    1 
 5.000000E-01  5.000000E-01  7.750000E+00  1.151877E+05  1.000000E+00    1 
 5.000000E-01  5.000000E-01  7.850000E+00  1.152404E+05  1.000000E+00    1 
 5.000000E-01  5.000000E-01  7.950000E+00  1.152931E+05  1.000000E+00    1 
 5.000000E-01  5.000000E-01  8.050000E+00  1.153458E+05  1.000000E+00    1 
 5.000000E-01  5.000000E-01  8.150000E+00  1.153985E+05  1.000000E+00    1 
 5.000000E-01  5.000000E-01  8.250000E+00  1.154512E+05  1.000000E+00    1 
 5.000000E-01  5.000000E-01  8.350000E+00  1.155039E+05  1.000000E+00    1 
 5.000000E-01  5.000000E-01  8.450000E+00  1.155566E+05  1.000000E+00    1 
 5.000000E-01  5.000000E-01  8.550000E+00  1.156093E+05  1.000000E+00    1 
 5.000000E-01  5.000000E-01  8.650000E+00  1.156619E+05  1.000000E+00    1 
 5.000000E-01  5.000000E-01  8.750000E+00  1.157146E+05  1.000000E+00    1 
 5.000000E-01  5.000000E-01  8.850000E+00  1.157673E+05  1.000000E+00    1 
 5.000000E-01  5.000000E-01  8.950000E+00  1.158200E+05  1.000000E+00    1 
 5.000000E-01  5.000000E-01  9.050000E+00  1.158727E+05  1.000000E+00    1 
 5.000000E-01  5.000000E-01  9.150000E+00  1.159254E+05  1.000000E+00    1 
 5.000000E-01  5.000000E-01  9.250000E+00  1.159781E+05  1.000000E+00    1 
 5.000000E-01  5.000000E-01  9.350000E+00  1.160308E+05  1.000000E+00    1 
 5.000000E-01  5.000000E-01  9.450000E+00  1.160835E+05  1.000000E+00    1 
 5.000000E-01  5.000000E-01  9.550000E+00  1.161362E+05  1.000000E+00    1 
 5.000000E-01  5.000000E-01  9.650000E+00  1.161889E+05  1.000000E+00    1 
 5.000000E-01  5.000000E-01  9.750000E+00  1.162415E+05  1.000000E+00    1 
 5.000000E-01  5.000000E-01  9.850000E+00  1.162942E+05  1.000000E+00    1 
 5.000000E-01  5.000000E-01  9.950000E+00  1.163469E+05  1.000000E+00    1 
