TITLE = "  1.00000E+01 [d]"
VARIABLES="X [m]","Y [m]","Z [m]","Liquid Pressure [Pa]","Liquid Saturation","Material ID"
ZONE T="1.00000E+01", I=1, J=1, K=100, DATAPACKING=POINT
 5.000000E-01  5.000000E-01  5.000000E-02  1.106150E+05  1.000000E+00    1 
 5.000000E-01  5.000000E-01  1.500000E-01  1.096371E+05  1.000000E+00    1 
 5.000000E-01  5.000000E-01  2.500000E-01  1.086592E+05  1.000000E+00    1 
 5.000000E-01  5.000000E-01  3.500000E-01  1.076813E+05  1.000000E+00    1 
 5.000000E-01  5.000000E-01  4.500000E-01  1.067034E+05  1.000000E+00    1 
 5.000000E-01  5.000000E-01  5.500000E-01  1.057255E+05  1.000000E+00    1 
 5.000000E-01  5.000000E-01  6.500000E-01  1.047476E+05  1.000000E+00    1 
 5.000000E-01  5.000000E-01  7.500000E-01  1.037697E+05  1.000000E+00    1 
 5.000000E-01  5.000000E-01  8.500000E-01  1.027918E+05  1.000000E+00    1 
 5.000000E-01  5.000000E-01  9.500000E-01  1.018139E+05  1.000000E+00    1 
 5.000000E-01  5.000000E-01  1.050000E+00  1.008361E+05  9.989261E-01    1 
 5.000000E-01  5.000000E-01  1.150000E+00  9.985816E+04  9.904712E-01    1 
 5.000000E-01  5.000000E-01  1.250000E+00  9.888026E+04  9.742532E-01    1 
 5.000000E-01  5.000000E-01  1.350000E+00  9.790237E+04  9.515064E-01    1 
 5.000000E-01  5.000000E-01  1.450000E+00  9.692447E+04  9.237675E-01    1 
 5.000000E-01  5.000000E-01  1.550000E+00  9.594658E+04  8.926288E-01    1 
 5.000000E-01  5.000000E-01  1.650000E+00  9.496868E+04  8.595470E-01    1 
 5.000000E-01  5.000000E-01  1.750000E+00  9.399079E+04  8.257340E-01    1 
 5.000000E-01  5.000000E-01  1.850000E+00  9.301289E+04  7.921211E-01    1 
 5.000000E-01  5.000000E-01  1.950000E+00  9.203500E+04  7.593731E-01    1 
 5.000000E-01  5.000000E-01  2.050000E+00  9.105710E+04  7.279295E-01    1 
 5.000000E-01  5.000000E-01  2.150000E+00  9.007921E+04  6.980524E-01    1 
 5.000000E-01  5.000000E-01  2.250000E+00  8.910131E+04  6.698731E-01    1 
 5.000000E-01  5.000000E-01  2.350000E+00  8.812342E+04  6.434306E-01    1 
 5.000000E-01  5.000000E-01  2.450000E+00  8.714552E+04  6.187018E-01    1 
 5.000000E-01  5.000000E-01  2.550000E+00  8.616763E+04  5.956246E-01    1 
 5.000000E-01  5.000000E-01  2.650000E+00  8.518974E+04  5.741134E-01    1 
 5.000000E-01  5.000000E-01  2.750000E+00  8.421185E+04  5.540708E-01    1 
 5.000000E-01  5.000000E-01  2.850000E+00  8.323395E+04  5.353948E-01    1 
 5.000000E-01  5.000000E-01  2.950000E+00  8.225606E+04  5.179837E-01    1 
 5.000000E-01  5.000000E-01  3.050000E+00  8.127817E+04  5.017395E-01    1 
 5.000000E-01  5.000000E-01  3.150000E+00  8.030028E+04  4.865692E-01    1 
 5.000000E-01  5.000000E-01  3.250000E+00  7.932239E+04  4.723860E-01    1 
 5.000000E-01  5.000000E-01  3.350000E+00  7.834450E+04  4.591096E-01    1 
 5.000000E-01  5.000000E-01  3.450000E+00  7.736661E+04  4.466660E-01    1 
 5.000000E-01  5.000000E-01  3.550000E+00  7.638873E+04  4.349876E-01    1 
 5.000000E-01  5.000000E-01  3.650000E+00  7.541084E+04  4.240129E-01    1 
 5.000000E-01  5.000000E-01  3.750000E+00  7.443296E+04  4.136856E-01    1 
 5.000000E-01  5.000000E-01  3.850000E+00  7.345507E+04  4.039547E-01    1 
 5.000000E-01  5.000000E-01  3.950000E+00  7.247719E+04  3.947738E-01    1 
 5.000000E-01  5.000000E-01  4.050000E+00  7.149931E+04  3.861007E-01    1 
 5.000000E-01  5.000000E-01  4.150000E+00  7.052143E+04  3.778969E-01    1 
 5.000000E-01  5.000000E-01  4.250000E+00  6.954355E+04  3.701277E-01    1 
 5.000000E-01  5.000000E-01  4.350000E+00  6.856567E+04  3.627613E-01    1 
 5.000000E-01  5.000000E-01  4.450000E+00  6.758779E+04  3.557686E-01    1 
 5.000000E-01  5.000000E-01  4.550000E+00  6.660992E+04  3.491234E-01    1 
 5.000000E-01  5.000000E-01  4.650000E+00  6.563204E+04  3.428014E-01    1 
 5.000000E-01  5.000000E-01  4.750000E+00  6.465416E+04  3.367806E-01    1 
 5.000000E-01  5.000000E-01  4.850000E+00  6.367629E+04  3.310409E-01    1 
 5.000000E-01  5.000000E-01  4.950000E+00  6.269841E+04  3.255637E-01    1 
 5.000000E-01  5.000000E-01  5.050000E+00  6.172054E+04  3.203321E-01    1 
 5.000000E-01  5.000000E-01  5.150000E+00  6.074267E+04  3.153304E-01    1 
 5.000000E-01  5.000000E-01  5.250000E+00  5.976479E+04  3.105443E-01    1 
 5.000000E-01  5.000000E-01  5.350000E+00  5.878692E+04  3.059605E-01    1 
 5.000000E-01  5.000000E-01  5.450000E+00  5.780904E+04  3.015669E-01    1 
 5.000000E-01  5.000000E-01  5.550000E+00  5.683117E+04  2.973523E-01    1 
 5.000000E-01  5.000000E-01  5.650000E+00  5.585330E+04  2.933060E-01    1 
 5.000000E-01  5.000000E-01  5.750000E+00  5.487543E+04  2.894186E-01    1 
 5.000000E-01  5.000000E-01  5.850000E+00  5.389755E+04  2.856810E-01    1 
 5.000000E-01  5.000000E-01  5.950000E+00  5.291968E+04  2.820850E-01    1 
 5.000000E-01  5.000000E-01  6.050000E+00  5.194181E+04  2.786228E-01    1 
 5.000000E-01  5.000000E-01  6.150000E+00  5.096394E+04  2.752872E-01    1 
 5.000000E-01  5.000000E-01  6.250000E+00  4.998607E+04  2.720717E-01    1 
 5.000000E-01  5.000000E-01  6.350000E+00  4.900820E+04  2.689698E-01    1 
 5.000000E-01  5.000000E-01  6.450000E+00  4.803032E+04  2.659759E-01    1 
 5.000000E-01  5.000000E-01  6.550000E+00  4.705245E+04  2.630844E-01    1 
 5.000000E-01  5.000000E-01  6.650000E+00  4.607458E+04  2.602904E-01    1 
 5.000000E-01  5.000000E-01  6.750000E+00  4.509671E+04  2.575890E-01    1 
 5.000000E-01  5.000000E-01  6.850000E+00  4.411884E+04  2.549757E-01    1 
 5.000000E-01  5.000000E-01  6.950000E+00  4.314098E+04  2.524465E-01    1 
 5.000000E-01  5.000000E-01  7.050000E+00  4.216311E+04  2.499973E-01    1 
 5.000000E-01  5.000000E-01  7.150000E+00  4.118524E+04  2.476245E-01    1 
 5.000000E-01  5.000000E-01  7.250000E+00  4.020737E+04  2.453246E-01    1 
 5.000000E-01  5.000000E-01  7.350000E+00  3.922950E+04  2.430944E-01    1 
 5.000000E-01  5.000000E-01  7.450000E+00  3.825164E+04  2.409307E-01    1 
 5.000000E-01  5.000000E-01  7.550000E+00  3.727377E+04  2.388307E-01    1 
 5.000000E-01  5.000000E-01  7.650000E+00  3.629590E+04  2.367916E-01    1 
 5.000000E-01  5.000000E-01  7.750000E+00  3.531804E+04  2.348109E-01    1 
 5.000000E-01  5.000000E-01  7.850000E+00  3.434017E+04  2.328861E-01    1 
 5.000000E-01  5.000000E-01  7.950000E+00  3.336231E+04  2.310150E-01    1 
 5.000000E-01  5.000000E-01  8.050000E+00  3.238444E+04  2.291952E-01    1 
 5.000000E-01  5.000000E-01  8.150000E+00  3.140658E+04  2.274248E-01    1 
 5.000000E-01  5.000000E-01  8.250000E+00  3.042872E+04  2.257017E-01    1 
 5.000000E-01  5.000000E-01  8.350000E+00  2.945087E+04  2.240242E-01    1 
 5.000000E-01  5.000000E-01  8.450000E+00  2.847303E+04  2.223905E-01    1 
 5.000000E-01  5.000000E-01  8.550000E+00  2.749521E+04  2.207990E-01    1 
 5.000000E-01  5.000000E-01  8.650000E+00  2.651746E+04  2.192480E-01    1 
 5.000000E-01  5.000000E-01  8.750000E+00  2.553984E+04  2.177362E-01    1 
 5.000000E-01  5.000000E-01  8.850000E+00  2.456249E+04  2.162624E-01    1 
 5.000000E-01  5.000000E-01  8.950000E+00  2.358574E+04  2.148255E-01    1 
 5.000000E-01  5.000000E-01  9.050000E+00  2.261026E+04  2.134253E-01    1 
 5.000000E-01  5.000000E-01  9.150000E+00  2.163737E+04  2.120621E-01    1 
 5.000000E-01  5.000000E-01  9.250000E+00  2.066972E+04  2.107381E-01    1 
 5.000000E-01  5.000000E-01  9.350000E+00  1.971230E+04  2.094583E-01    1 
 5.000000E-01  5.000000E-01  9.450000E+00  1.877409E+04  2.082324E-01    1 
 5.000000E-01  5.000000E-01  9.550000E+00  1.787028E+04  2.070769E-01    1 
 5.000000E-01  5.000000E-01  9.650000E+00  1.702446E+04  2.060176E-01    1 
 5.000000E-01  5.000000E-01  9.750000E+00  1.626919E+04  2.050891E-01    1 
 5.000000E-01  5.000000E-01  9.850000E+00  1.564242E+04  2.043307E-01    1 
 5.000000E-01  5.000000E-01  9.950000E+00  1.517796E+04  2.037757E-01    1 
