TITLE = "  0.00000E+00 [d]"
VARIABLES="X [m]","Y [m]","Z [m]","Liquid Pressure [Pa]","Liquid Saturation","Material ID"
ZONE T="0.00000E+00", I=1, J=1, K=100, DATAPACKING=POINT
 5.000000E-01  5.000000E-01  5.000000E-02  1.106150E+05  1.000000E+00    1 
 5.000000E-01  5.000000E-01  1.500000E-01  1.096371E+05  1.000000E+00    1 
 5.000000E-01  5.000000E-01  2.500000E-01  1.086592E+05  1.000000E+00    1 
 5.000000E-01  5.000000E-01  3.500000E-01  1.076813E+05  1.000000E+00    1 
 5.000000E-01  5.000000E-01  4.500000E-01  1.067034E+05  1.000000E+00    1 
 5.000000E-01  5.000000E-01  5.500000E-01  1.057255E+05  1.000000E+00    1 
 5.000000E-01  5.000000E-01  6.500000E-01  1.047476E+05  1.000000E+00    1 
 5.000000E-01  5.000000E-01  7.500000E-01  1.037697E+05  1.000000E+00    1 
 5.000000E-01  5.000000E-01  8.500000E-01  1.027918E+05  1.000000E+00    1 
 5.000000E-01  5.000000E-01  9.500000E-01  1.018139E+05  1.000000E+00    1 
 5.000000E-01  5.000000E-01  1.050000E+00  1.008361E+05  9.989261E-01    1 
 5.000000E-01  5.000000E-01  1.150000E+00  9.985816E+04  9.904712E-01    1 
 5.000000E-01  5.000000E-01  1.250000E+00  9.888026E+04  9.742532E-01    1 
 5.000000E-01  5.000000E-01  1.350000E+00  9.790237E+04  9.515064E-01    1 
 5.000000E-01  5.000000E-01  1.450000E+00  9.692448E+04  9.237676E-01    1 
 5.000000E-01  5.000000E-01  1.550000E+00  9.594658E+04  8.926289E-01    1 
 5.000000E-01  5.000000E-01  1.650000E+00  9.496869E+04  8.595472E-01    1 
 5.000000E-01  5.000000E-01  1.750000E+00  9.399079E+04  8.257343E-01    1 
 5.000000E-01  5.000000E-01  1.850000E+00  9.301290E+04  7.921214E-01    1 
 5.000000E-01  5.000000E-01  1.950000E+00  9.203501E+04  7.593735E-01    1 
 5.000000E-01  5.000000E-01  2.050000E+00  9.105712E+04  7.279299E-01    1 
 5.000000E-01  5.000000E-01  2.150000E+00  9.007922E+04  6.980529E-01    1 
 5.000000E-01  5.000000E-01  2.250000E+00  8.910133E+04  6.698736E-01    1 
 5.000000E-01  5.000000E-01  2.350000E+00  8.812344E+04  6.434312E-01    1 
 5.000000E-01  5.000000E-01  2.450000E+00  8.714555E+04  6.187025E-01    1 
 5.000000E-01  5.000000E-01  2.550000E+00  8.616766E+04  5.956253E-01    1 
 5.000000E-01  5.000000E-01  2.650000E+00  8.518977E+04  5.741142E-01    1 
 5.000000E-01  5.000000E-01  2.750000E+00  8.421189E+04  5.540716E-01    1 
 5.000000E-01  5.000000E-01  2.850000E+00  8.323400E+04  5.353956E-01    1 
 5.000000E-01  5.000000E-01  2.950000E+00  8.225611E+04  5.179846E-01    1 
 5.000000E-01  5.000000E-01  3.050000E+00  8.127823E+04  5.017404E-01    1 
 5.000000E-01  5.000000E-01  3.150000E+00  8.030034E+04  4.865702E-01    1 
 5.000000E-01  5.000000E-01  3.250000E+00  7.932246E+04  4.723870E-01    1 
 5.000000E-01  5.000000E-01  3.350000E+00  7.834457E+04  4.591105E-01    1 
 5.000000E-01  5.000000E-01  3.450000E+00  7.736669E+04  4.466669E-01    1 
 5.000000E-01  5.000000E-01  3.550000E+00  7.638880E+04  4.349885E-01    1 
 5.000000E-01  5.000000E-01  3.650000E+00  7.541092E+04  4.240137E-01    1 
 5.000000E-01  5.000000E-01  3.750000E+00  7.443304E+04  4.136864E-01    1 
 5.000000E-01  5.000000E-01  3.850000E+00  7.345515E+04  4.039555E-01    1 
 5.000000E-01  5.000000E-01  3.950000E+00  7.247727E+04  3.947745E-01    1 
 5.000000E-01  5.000000E-01  4.050000E+00  7.149939E+04  3.861014E-01    1 
 5.000000E-01  5.000000E-01  4.150000E+00  7.052151E+04  3.778976E-01    1 
 5.000000E-01  5.000000E-01  4.250000E+00  6.954363E+04  3.701283E-01    1 
 5.000000E-01  5.000000E-01  4.350000E+00  6.856575E+04  3.627618E-01    1 
 5.000000E-01  5.000000E-01  4.450000E+00  6.758787E+04  3.557691E-01    1 
 5.000000E-01  5.000000E-01  4.550000E+00  6.660999E+04  3.491238E-01    1 
 5.000000E-01  5.000000E-01  4.650000E+00  6.563211E+04  3.428018E-01    1 
 5.000000E-01  5.000000E-01  4.750000E+00  6.465423E+04  3.367810E-01    1 
 5.000000E-01  5.000000E-01  4.850000E+00  6.367635E+04  3.310412E-01    1 
 5.000000E-01  5.000000E-01  4.950000E+00  6.269847E+04  3.255640E-01    1 
 5.000000E-01  5.000000E-01  5.050000E+00  6.172059E+04  3.203323E-01    1 
 5.000000E-01  5.000000E-01  5.150000E+00  6.074272E+04  3.153306E-01    1 
 5.000000E-01  5.000000E-01  5.250000E+00  5.976484E+04  3.105445E-01    1 
 5.000000E-01  5.000000E-01  5.350000E+00  5.878696E+04  3.059607E-01    1 
 5.000000E-01  5.000000E-01  5.450000E+00  5.780909E+04  3.015671E-01    1 
 5.000000E-01  5.000000E-01  5.550000E+00  5.683121E+04  2.973524E-01    1 
 5.000000E-01  5.000000E-01  5.650000E+00  5.585333E+04  2.933062E-01    1 
 5.000000E-01  5.000000E-01  5.750000E+00  5.487546E+04  2.894187E-01    1 
 5.000000E-01  5.000000E-01  5.850000E+00  5.389759E+04  2.856811E-01    1 
 5.000000E-01  5.000000E-01  5.950000E+00  5.291971E+04  2.820851E-01    1 
 5.000000E-01  5.000000E-01  6.050000E+00  5.194184E+04  2.786229E-01    1 
 5.000000E-01  5.000000E-01  6.150000E+00  5.096396E+04  2.752873E-01    1 
 5.000000E-01  5.000000E-01  6.250000E+00  4.998609E+04  2.720718E-01    1 
 5.000000E-01  5.000000E-01  6.350000E+00  4.900822E+04  2.689699E-01    1 
 5.000000E-01  5.000000E-01  6.450000E+00  4.803035E+04  2.659760E-01    1 
 5.000000E-01  5.000000E-01  6.550000E+00  4.705248E+04  2.630845E-01    1 
 5.000000E-01  5.000000E-01  6.650000E+00  4.607460E+04  2.602904E-01    1 
 5.000000E-01  5.000000E-01  6.750000E+00  4.509673E+04  2.575890E-01    1 
 5.000000E-01  5.000000E-01  6.850000E+00  4.411886E+04  2.549758E-01    1 
 5.000000E-01  5.000000E-01  6.950000E+00  4.314099E+04  2.524465E-01    1 
 5.000000E-01  5.000000E-01  7.050000E+00  4.216312E+04  2.499973E-01    1 
 5.000000E-01  5.000000E-01  7.150000E+00  4.118526E+04  2.476245E-01    1 
 5.000000E-01  5.000000E-01  7.250000E+00  4.020739E+04  2.453247E-01    1 
 5.000000E-01  5.000000E-01  7.350000E+00  3.922952E+04  2.430944E-01    1 
 5.000000E-01  5.000000E-01  7.450000E+00  3.825165E+04  2.409307E-01    1 
 5.000000E-01  5.000000E-01  7.550000E+00  3.727378E+04  2.388307E-01    1 
 5.000000E-01  5.000000E-01  7.650000E+00  3.629592E+04  2.367917E-01    1 
 5.000000E-01  5.000000E-01  7.750000E+00  3.531805E+04  2.348110E-01    1 
 5.000000E-01  5.000000E-01  7.850000E+00  3.434019E+04  2.328862E-01    1 
 5.000000E-01  5.000000E-01  7.950000E+00  3.336232E+04  2.310150E-01    1 
 5.000000E-01  5.000000E-01  8.050000E+00  3.238445E+04  2.291952E-01    1 
 5.000000E-01  5.000000E-01  8.150000E+00  3.140659E+04  2.274248E-01    1 
 5.000000E-01  5.000000E-01  8.250000E+00  3.042873E+04  2.257017E-01    1 
 5.000000E-01  5.000000E-01  8.350000E+00  2.945086E+04  2.240242E-01    1 
 5.000000E-01  5.000000E-01  8.450000E+00  2.847300E+04  2.223905E-01    1 
 5.000000E-01  5.000000E-01  8.550000E+00  2.749514E+04  2.207989E-01    1 
 5.000000E-01  5.000000E-01  8.650000E+00  2.651728E+04  2.192477E-01    1 
 5.000000E-01  5.000000E-01  8.750000E+00  2.553943E+04  2.177356E-01    1 
 5.000000E-01  5.000000E-01  8.850000E+00  2.456163E+04  2.162611E-01    1 
 5.000000E-01  5.000000E-01  8.950000E+00  2.358412E+04  2.148232E-01    1 
 5.000000E-01  5.000000E-01  9.050000E+00  2.260805E+04  2.134221E-01    1 
 5.000000E-01  5.000000E-01  9.150000E+00  2.163971E+04  2.120653E-01    1 
 5.000000E-01  5.000000E-01  9.250000E+00  2.071329E+04  2.107970E-01    1 
 5.000000E-01  5.000000E-01  9.350000E+00  2.001917E+04  2.098653E-01    1 
 5.000000E-01  5.000000E-01  9.450000E+00  2.063807E+04  2.106953E-01    1 
 5.000000E-01  5.000000E-01  9.550000E+00  2.882721E+04  2.229773E-01    1 
 5.000000E-01  5.000000E-01  9.650000E+00  8.153351E+04  5.058737E-01    1 
 5.000000E-01  5.000000E-01  9.750000E+00  4.012306E+05  1.000000E+00    1 
 5.000000E-01  5.000000E-01  9.850000E+00  2.353921E+06  1.000000E+00    1 
 5.000000E-01  5.000000E-01  9.950000E+00  1.449158E+07  1.000000E+00    1 
