# vtk DataFile Version 2.0
PFLOTRAN output
ASCII
DATASET UNSTRUCTURED_GRID
POINTS          462 float
 0.000000E+00  0.000000E+00  0.000000E+00
 1.000000E-01  0.000000E+00  0.000000E+00
 2.000000E-01  0.000000E+00  0.000000E+00
 3.000000E-01  0.000000E+00  0.000000E+00
 4.000000E-01  0.000000E+00  0.000000E+00
 5.000000E-01  0.000000E+00  0.000000E+00
 6.000000E-01  0.000000E+00  0.000000E+00
 7.000000E-01  0.000000E+00  0.000000E+00
 8.000000E-01  0.000000E+00  0.000000E+00
 9.000000E-01  0.000000E+00  0.000000E+00
 1.000000E+00  0.000000E+00  0.000000E+00
 1.100000E+00  0.000000E+00  0.000000E+00
 1.200000E+00  0.000000E+00  0.000000E+00
 1.300000E+00  0.000000E+00  0.000000E+00
 1.400000E+00  0.000000E+00  0.000000E+00
 1.500000E+00  0.000000E+00  0.000000E+00
 1.600000E+00  0.000000E+00  0.000000E+00
 1.700000E+00  0.000000E+00  0.000000E+00
 1.800000E+00  0.000000E+00  0.000000E+00
 1.900000E+00  0.000000E+00  0.000000E+00
 2.000000E+00  0.000000E+00  0.000000E+00
 0.000000E+00  1.000000E-01  0.000000E+00
 1.000000E-01  1.000000E-01  0.000000E+00
 2.000000E-01  1.000000E-01  0.000000E+00
 3.000000E-01  1.000000E-01  0.000000E+00
 4.000000E-01  1.000000E-01  0.000000E+00
 5.000000E-01  1.000000E-01  0.000000E+00
 6.000000E-01  1.000000E-01  0.000000E+00
 7.000000E-01  1.000000E-01  0.000000E+00
 8.000000E-01  1.000000E-01  0.000000E+00
 9.000000E-01  1.000000E-01  0.000000E+00
 1.000000E+00  1.000000E-01  0.000000E+00
 1.100000E+00  1.000000E-01  0.000000E+00
 1.200000E+00  1.000000E-01  0.000000E+00
 1.300000E+00  1.000000E-01  0.000000E+00
 1.400000E+00  1.000000E-01  0.000000E+00
 1.500000E+00  1.000000E-01  0.000000E+00
 1.600000E+00  1.000000E-01  0.000000E+00
 1.700000E+00  1.000000E-01  0.000000E+00
 1.800000E+00  1.000000E-01  0.000000E+00
 1.900000E+00  1.000000E-01  0.000000E+00
 2.000000E+00  1.000000E-01  0.000000E+00
 0.000000E+00  2.000000E-01  0.000000E+00
 1.000000E-01  2.000000E-01  0.000000E+00
 2.000000E-01  2.000000E-01  0.000000E+00
 3.000000E-01  2.000000E-01  0.000000E+00
 4.000000E-01  2.000000E-01  0.000000E+00
 5.000000E-01  2.000000E-01  0.000000E+00
 6.000000E-01  2.000000E-01  0.000000E+00
 7.000000E-01  2.000000E-01  0.000000E+00
 8.000000E-01  2.000000E-01  0.000000E+00
 9.000000E-01  2.000000E-01  0.000000E+00
 1.000000E+00  2.000000E-01  0.000000E+00
 1.100000E+00  2.000000E-01  0.000000E+00
 1.200000E+00  2.000000E-01  0.000000E+00
 1.300000E+00  2.000000E-01  0.000000E+00
 1.400000E+00  2.000000E-01  0.000000E+00
 1.500000E+00  2.000000E-01  0.000000E+00
 1.600000E+00  2.000000E-01  0.000000E+00
 1.700000E+00  2.000000E-01  0.000000E+00
 1.800000E+00  2.000000E-01  0.000000E+00
 1.900000E+00  2.000000E-01  0.000000E+00
 2.000000E+00  2.000000E-01  0.000000E+00
 0.000000E+00  3.000000E-01  0.000000E+00
 1.000000E-01  3.000000E-01  0.000000E+00
 2.000000E-01  3.000000E-01  0.000000E+00
 3.000000E-01  3.000000E-01  0.000000E+00
 4.000000E-01  3.000000E-01  0.000000E+00
 5.000000E-01  3.000000E-01  0.000000E+00
 6.000000E-01  3.000000E-01  0.000000E+00
 7.000000E-01  3.000000E-01  0.000000E+00
 8.000000E-01  3.000000E-01  0.000000E+00
 9.000000E-01  3.000000E-01  0.000000E+00
 1.000000E+00  3.000000E-01  0.000000E+00
 1.100000E+00  3.000000E-01  0.000000E+00
 1.200000E+00  3.000000E-01  0.000000E+00
 1.300000E+00  3.000000E-01  0.000000E+00
 1.400000E+00  3.000000E-01  0.000000E+00
 1.500000E+00  3.000000E-01  0.000000E+00
 1.600000E+00  3.000000E-01  0.000000E+00
 1.700000E+00  3.000000E-01  0.000000E+00
 1.800000E+00  3.000000E-01  0.000000E+00
 1.900000E+00  3.000000E-01  0.000000E+00
 2.000000E+00  3.000000E-01  0.000000E+00
 0.000000E+00  4.000000E-01  0.000000E+00
 1.000000E-01  4.000000E-01  0.000000E+00
 2.000000E-01  4.000000E-01  0.000000E+00
 3.000000E-01  4.000000E-01  0.000000E+00
 4.000000E-01  4.000000E-01  0.000000E+00
 5.000000E-01  4.000000E-01  0.000000E+00
 6.000000E-01  4.000000E-01  0.000000E+00
 7.000000E-01  4.000000E-01  0.000000E+00
 8.000000E-01  4.000000E-01  0.000000E+00
 9.000000E-01  4.000000E-01  0.000000E+00
 1.000000E+00  4.000000E-01  0.000000E+00
 1.100000E+00  4.000000E-01  0.000000E+00
 1.200000E+00  4.000000E-01  0.000000E+00
 1.300000E+00  4.000000E-01  0.000000E+00
 1.400000E+00  4.000000E-01  0.000000E+00
 1.500000E+00  4.000000E-01  0.000000E+00
 1.600000E+00  4.000000E-01  0.000000E+00
 1.700000E+00  4.000000E-01  0.000000E+00
 1.800000E+00  4.000000E-01  0.000000E+00
 1.900000E+00  4.000000E-01  0.000000E+00
 2.000000E+00  4.000000E-01  0.000000E+00
 0.000000E+00  5.000000E-01  0.000000E+00
 1.000000E-01  5.000000E-01  0.000000E+00
 2.000000E-01  5.000000E-01  0.000000E+00
 3.000000E-01  5.000000E-01  0.000000E+00
 4.000000E-01  5.000000E-01  0.000000E+00
 5.000000E-01  5.000000E-01  0.000000E+00
 6.000000E-01  5.000000E-01  0.000000E+00
 7.000000E-01  5.000000E-01  0.000000E+00
 8.000000E-01  5.000000E-01  0.000000E+00
 9.000000E-01  5.000000E-01  0.000000E+00
 1.000000E+00  5.000000E-01  0.000000E+00
 1.100000E+00  5.000000E-01  0.000000E+00
 1.200000E+00  5.000000E-01  0.000000E+00
 1.300000E+00  5.000000E-01  0.000000E+00
 1.400000E+00  5.000000E-01  0.000000E+00
 1.500000E+00  5.000000E-01  0.000000E+00
 1.600000E+00  5.000000E-01  0.000000E+00
 1.700000E+00  5.000000E-01  0.000000E+00
 1.800000E+00  5.000000E-01  0.000000E+00
 1.900000E+00  5.000000E-01  0.000000E+00
 2.000000E+00  5.000000E-01  0.000000E+00
 0.000000E+00  6.000000E-01  0.000000E+00
 1.000000E-01  6.000000E-01  0.000000E+00
 2.000000E-01  6.000000E-01  0.000000E+00
 3.000000E-01  6.000000E-01  0.000000E+00
 4.000000E-01  6.000000E-01  0.000000E+00
 5.000000E-01  6.000000E-01  0.000000E+00
 6.000000E-01  6.000000E-01  0.000000E+00
 7.000000E-01  6.000000E-01  0.000000E+00
 8.000000E-01  6.000000E-01  0.000000E+00
 9.000000E-01  6.000000E-01  0.000000E+00
 1.000000E+00  6.000000E-01  0.000000E+00
 1.100000E+00  6.000000E-01  0.000000E+00
 1.200000E+00  6.000000E-01  0.000000E+00
 1.300000E+00  6.000000E-01  0.000000E+00
 1.400000E+00  6.000000E-01  0.000000E+00
 1.500000E+00  6.000000E-01  0.000000E+00
 1.600000E+00  6.000000E-01  0.000000E+00
 1.700000E+00  6.000000E-01  0.000000E+00
 1.800000E+00  6.000000E-01  0.000000E+00
 1.900000E+00  6.000000E-01  0.000000E+00
 2.000000E+00  6.000000E-01  0.000000E+00
 0.000000E+00  7.000000E-01  0.000000E+00
 1.000000E-01  7.000000E-01  0.000000E+00
 2.000000E-01  7.000000E-01  0.000000E+00
 3.000000E-01  7.000000E-01  0.000000E+00
 4.000000E-01  7.000000E-01  0.000000E+00
 5.000000E-01  7.000000E-01  0.000000E+00
 6.000000E-01  7.000000E-01  0.000000E+00
 7.000000E-01  7.000000E-01  0.000000E+00
 8.000000E-01  7.000000E-01  0.000000E+00
 9.000000E-01  7.000000E-01  0.000000E+00
 1.000000E+00  7.000000E-01  0.000000E+00
 1.100000E+00  7.000000E-01  0.000000E+00
 1.200000E+00  7.000000E-01  0.000000E+00
 1.300000E+00  7.000000E-01  0.000000E+00
 1.400000E+00  7.000000E-01  0.000000E+00
 1.500000E+00  7.000000E-01  0.000000E+00
 1.600000E+00  7.000000E-01  0.000000E+00
 1.700000E+00  7.000000E-01  0.000000E+00
 1.800000E+00  7.000000E-01  0.000000E+00
 1.900000E+00  7.000000E-01  0.000000E+00
 2.000000E+00  7.000000E-01  0.000000E+00
 0.000000E+00  8.000000E-01  0.000000E+00
 1.000000E-01  8.000000E-01  0.000000E+00
 2.000000E-01  8.000000E-01  0.000000E+00
 3.000000E-01  8.000000E-01  0.000000E+00
 4.000000E-01  8.000000E-01  0.000000E+00
 5.000000E-01  8.000000E-01  0.000000E+00
 6.000000E-01  8.000000E-01  0.000000E+00
 7.000000E-01  8.000000E-01  0.000000E+00
 8.000000E-01  8.000000E-01  0.000000E+00
 9.000000E-01  8.000000E-01  0.000000E+00
 1.000000E+00  8.000000E-01  0.000000E+00
 1.100000E+00  8.000000E-01  0.000000E+00
 1.200000E+00  8.000000E-01  0.000000E+00
 1.300000E+00  8.000000E-01  0.000000E+00
 1.400000E+00  8.000000E-01  0.000000E+00
 1.500000E+00  8.000000E-01  0.000000E+00
 1.600000E+00  8.000000E-01  0.000000E+00
 1.700000E+00  8.000000E-01  0.000000E+00
 1.800000E+00  8.000000E-01  0.000000E+00
 1.900000E+00  8.000000E-01  0.000000E+00
 2.000000E+00  8.000000E-01  0.000000E+00
 0.000000E+00  9.000000E-01  0.000000E+00
 1.000000E-01  9.000000E-01  0.000000E+00
 2.000000E-01  9.000000E-01  0.000000E+00
 3.000000E-01  9.000000E-01  0.000000E+00
 4.000000E-01  9.000000E-01  0.000000E+00
 5.000000E-01  9.000000E-01  0.000000E+00
 6.000000E-01  9.000000E-01  0.000000E+00
 7.000000E-01  9.000000E-01  0.000000E+00
 8.000000E-01  9.000000E-01  0.000000E+00
 9.000000E-01  9.000000E-01  0.000000E+00
 1.000000E+00  9.000000E-01  0.000000E+00
 1.100000E+00  9.000000E-01  0.000000E+00
 1.200000E+00  9.000000E-01  0.000000E+00
 1.300000E+00  9.000000E-01  0.000000E+00
 1.400000E+00  9.000000E-01  0.000000E+00
 1.500000E+00  9.000000E-01  0.000000E+00
 1.600000E+00  9.000000E-01  0.000000E+00
 1.700000E+00  9.000000E-01  0.000000E+00
 1.800000E+00  9.000000E-01  0.000000E+00
 1.900000E+00  9.000000E-01  0.000000E+00
 2.000000E+00  9.000000E-01  0.000000E+00
 0.000000E+00  1.000000E+00  0.000000E+00
 1.000000E-01  1.000000E+00  0.000000E+00
 2.000000E-01  1.000000E+00  0.000000E+00
 3.000000E-01  1.000000E+00  0.000000E+00
 4.000000E-01  1.000000E+00  0.000000E+00
 5.000000E-01  1.000000E+00  0.000000E+00
 6.000000E-01  1.000000E+00  0.000000E+00
 7.000000E-01  1.000000E+00  0.000000E+00
 8.000000E-01  1.000000E+00  0.000000E+00
 9.000000E-01  1.000000E+00  0.000000E+00
 1.000000E+00  1.000000E+00  0.000000E+00
 1.100000E+00  1.000000E+00  0.000000E+00
 1.200000E+00  1.000000E+00  0.000000E+00
 1.300000E+00  1.000000E+00  0.000000E+00
 1.400000E+00  1.000000E+00  0.000000E+00
 1.500000E+00  1.000000E+00  0.000000E+00
 1.600000E+00  1.000000E+00  0.000000E+00
 1.700000E+00  1.000000E+00  0.000000E+00
 1.800000E+00  1.000000E+00  0.000000E+00
 1.900000E+00  1.000000E+00  0.000000E+00
 2.000000E+00  1.000000E+00  0.000000E+00
 0.000000E+00  0.000000E+00  1.000000E+00
 1.000000E-01  0.000000E+00  1.000000E+00
 2.000000E-01  0.000000E+00  1.000000E+00
 3.000000E-01  0.000000E+00  1.000000E+00
[...]
CELL_DATA     200
SCALARS Liquid_Pressure      float 1
LOOKUP_TABLE default
 1.150000E+06  1.250000E+06  1.350000E+06  1.450000E+06  1.550000E+06  1.650000E+06  1.750000E+06  1.850000E+06  1.950000E+06  2.050000E+06
 2.150000E+06  2.250000E+06  2.350000E+06  2.450000E+06  2.550000E+06  2.650000E+06  2.750000E+06  2.850000E+06  2.950000E+06  3.050000E+06
 1.350000E+06  1.450000E+06  1.550000E+06  1.650000E+06  1.750000E+06  1.850000E+06  1.950000E+06  2.050000E+06  2.150000E+06  2.250000E+06
 2.350000E+06  2.450000E+06  2.550000E+06  2.650000E+06  2.750000E+06  2.850000E+06  2.950000E+06  3.050000E+06  3.150000E+06  3.250000E+06
 1.550000E+06  1.650000E+06  1.750000E+06  1.850000E+06  1.950000E+06  2.050000E+06  2.150000E+06  2.250000E+06  2.350000E+06  2.450000E+06
 2.550000E+06  2.650000E+06  2.750000E+06  2.850000E+06  2.950000E+06  3.050000E+06  3.150000E+06  3.250000E+06  3.350000E+06  3.450000E+06
 1.750000E+06  1.850000E+06  1.950000E+06  2.050000E+06  2.150000E+06  2.250000E+06  2.350000E+06  2.450000E+06  2.550000E+06  2.650000E+06
 2.750000E+06  2.850000E+06  2.950000E+06  3.050000E+06  3.150000E+06  3.250000E+06  3.350000E+06  3.450000E+06  3.550000E+06  3.650000E+06
 1.950000E+06  2.050000E+06  2.150000E+06  2.250000E+06  2.350000E+06  2.450000E+06  2.550000E+06  2.650000E+06  2.750000E+06  2.850000E+06
 2.950000E+06  3.050000E+06  3.150000E+06  3.250000E+06  3.350000E+06  3.450000E+06  3.550000E+06  3.650000E+06  3.750000E+06  3.850000E+06
 2.150000E+06  2.250000E+06  2.350000E+06  2.450000E+06  2.550000E+06  2.650000E+06  2.750000E+06  2.850000E+06  2.950000E+06  3.050000E+06
 3.150000E+06  3.250000E+06  3.350000E+06  3.450000E+06  3.550000E+06  3.650000E+06  3.750000E+06  3.850000E+06  3.950000E+06  4.050000E+06
 2.350000E+06  2.450000E+06  2.550000E+06  2.650000E+06  2.750000E+06  2.850000E+06  2.950000E+06  3.050000E+06  3.150000E+06  3.250000E+06
 3.350000E+06  3.450000E+06  3.550000E+06  3.650000E+06  3.750000E+06  3.850000E+06  3.950000E+06  4.050000E+06  4.150000E+06  4.250000E+06
 2.550000E+06  2.650000E+06  2.750000E+06  2.850000E+06  2.950000E+06  3.050000E+06  3.150000E+06  3.250000E+06  3.350000E+06  3.450000E+06
 3.550000E+06  3.650000E+06  3.750000E+06  3.850000E+06  3.950000E+06  4.050000E+06  4.150000E+06  4.250000E+06  4.350000E+06  4.450000E+06
 2.750000E+06  2.850000E+06  2.950000E+06  3.050000E+06  3.150000E+06  3.250000E+06  3.350000E+06  3.450000E+06  3.550000E+06  3.650000E+06
 3.750000E+06  3.850000E+06  3.950000E+06  4.050000E+06  4.150000E+06  4.250000E+06  4.350000E+06  4.450000E+06  4.550000E+06  4.650000E+06
 2.950000E+06  3.050000E+06  3.150000E+06  3.250000E+06  3.350000E+06  3.450000E+06  3.550000E+06  3.650000E+06  3.750000E+06  3.850000E+06
 3.950000E+06  4.050000E+06  4.150000E+06  4.250000E+06  4.350000E+06  4.450000E+06  4.550000E+06  4.650000E+06  4.750000E+06  4.850000E+06


SCALARS Liquid_Saturation    float 1
LOOKUP_TABLE default
 1.000000E+00  1.000000E+00  1.000000E+00  1.000000E+00  1.000000E+00  1.000000E+00  1.000000E+00  1.000000E+00  1.000000E+00  1.000000E+00
 1.000000E+00  1.000000E+00  1.000000E+00  1.000000E+00  1.000000E+00  1.000000E+00  1.000000E+00  1.000000E+00  1.000000E+00  1.000000E+00
 1.000000E+00  1.000000E+00  1.000000E+00  1.000000E+00  1.000000E+00  1.000000E+00  1.000000E+00  1.000000E+00  1.000000E+00  1.000000E+00
 1.000000E+00  1.000000E+00  1.000000E+00  1.000000E+00  1.000000E+00  1.000000E+00  1.000000E+00  1.000000E+00  1.000000E+00  1.000000E+00
 1.000000E+00  1.000000E+00  1.000000E+00  1.000000E+00  1.000000E+00  1.000000E+00  1.000000E+00  1.000000E+00  1.000000E+00  1.000000E+00
 1.000000E+00  1.000000E+00  1.000000E+00  1.000000E+00  1.000000E+00  1.000000E+00  1.000000E+00  1.000000E+00  1.000000E+00  1.000000E+00
 1.000000E+00  1.000000E+00  1.000000E+00  1.000000E+00  1.000000E+00  1.000000E+00  1.000000E+00  1.000000E+00  1.000000E+00  1.000000E+00
 1.000000E+00  1.000000E+00  1.000000E+00  1.000000E+00  1.000000E+00  1.000000E+00  1.000000E+00  1.000000E+00  1.000000E+00  1.000000E+00
 1.000000E+00  1.000000E+00  1.000000E+00  1.000000E+00  1.000000E+00  1.000000E+00  1.000000E+00  1.000000E+00  1.000000E+00  1.000000E+00
 1.000000E+00  1.000000E+00  1.000000E+00  1.000000E+00  1.000000E+00  1.000000E+00  1.000000E+00  1.000000E+00  1.000000E+00  1.000000E+00
 1.000000E+00  1.000000E+00  1.000000E+00  1.000000E+00  1.000000E+00  1.000000E+00  1.000000E+00  1.000000E+00  1.000000E+00  1.000000E+00
 1.000000E+00  1.000000E+00  1.000000E+00  1.000000E+00  1.000000E+00  1.000000E+00  1.000000E+00  1.000000E+00  1.000000E+00  1.000000E+00
 1.000000E+00  1.000000E+00  1.000000E+00  1.000000E+00  1.000000E+00  1.000000E+00  1.000000E+00  1.000000E+00  1.000000E+00  1.000000E+00
 1.000000E+00  1.000000E+00  1.000000E+00  1.000000E+00  1.000000E+00  1.000000E+00  1.000000E+00  1.000000E+00  1.000000E+00  1.000000E+00
 1.000000E+00  1.000000E+00  1.000000E+00  1.000000E+00  1.000000E+00  1.000000E+00  1.000000E+00  1.000000E+00  1.000000E+00  1.000000E+00
 1.000000E+00  1.000000E+00  1.000000E+00  1.000000E+00  1.000000E+00  1.000000E+00  1.000000E+00  1.000000E+00  1.000000E+00  1.000000E+00
 1.000000E+00  1.000000E+00  1.000000E+00  1.000000E+00  1.000000E+00  1.000000E+00  1.000000E+00  1.000000E+00  1.000000E+00  1.000000E+00
 1.000000E+00  1.000000E+00  1.000000E+00  1.000000E+00  1.000000E+00  1.000000E+00  1.000000E+00  1.000000E+00  1.000000E+00  1.000000E+00
 1.000000E+00  1.000000E+00  1.000000E+00  1.000000E+00  1.000000E+00  1.000000E+00  1.000000E+00  1.000000E+00  1.000000E+00  1.000000E+00
 1.000000E+00  1.000000E+00  1.000000E+00  1.000000E+00  1.000000E+00  1.000000E+00  1.000000E+00  1.000000E+00  1.000000E+00  1.000000E+00


SCALARS Material_ID          int 1
LOOKUP_TABLE default
  1
  1
  1
  1
  1
  1
  1
  1
  1
  1
  1
  1
  1
  1
  1
  1
  1
  1
  1
  1
  1
  1
  1
  1
  1
  1
  1
  1
  1
  1
  1
  1
  1
  1
  1
  1
  1
  1
  1
  1
  1
  1
  1
  1
  1
  1
  1
  1
  1
  1
  1
  1
  1
  1
  1
  1
  1
  1
  1
  1
  1
  1
  1
  1
  1
  1
  1
  1
  1
  1
  1
  1
  1
  1
  1
  1
  1
  1
  1
  1
  1
  1
  1
  1
  1
  1
  1
  1
  1
  1
  1
  1
  1
  1
  1
  1
  1
  1
  1
  1
  1
  1
  1
  1
  1
  1
  1
  1
  1
  1
  1
  1
  1
  1
  1
  1
  1
  1
  1
  1
  1
  1
  1
  1
  1
  1
  1
  1
  1
  1
  1
  1
  1
  1
  1
  1
  1
  1
  1
  1
  1
  1
  1
  1
  1
  1
  1
  1
  1
  1
  1
  1
  1
  1
  1
  1
  1
  1
  1
  1
  1
  1
  1
  1
  1
  1
  1
  1
  1
  1
  1
  1
  1
  1
  1
  1
  1
  1
  1
  1
  1
  1
  1
  1
  1
  1
  1
  1
  1
  1
  1
  1
  1
  1
  1
  1
  1
  1
  1
  1


