TITLE = "  0.00000E+00 [d]"
VARIABLES="X [m]","Y [m]","Z [m]","Liquid Pressure [Pa]","Liquid Saturation","Material ID"
ZONE T="0.00000E+00", N=27, E=8, ZONETYPE=FEBRICK, VARLOCATION=([4-6]=CELLCENTERED), DATAPACKING=BLOCK
# vertex x-coordinate
 0.000000E+00  1.000000E+00  2.000000E+00  0.000000E+00  1.000000E+00  2.000000E+00  0.000000E+00  1.000000E+00  2.000000E+00  0.000000E+00
 1.000000E+00  2.000000E+00  0.000000E+00  1.000000E+00  2.000000E+00  0.000000E+00  1.000000E+00  2.000000E+00  0.000000E+00  1.000000E+00
 2.000000E+00  0.000000E+00  1.000000E+00  2.000000E+00  0.000000E+00  1.000000E+00  2.000000E+00
# vertex y-coordinate
 0.000000E+00  0.000000E+00  0.000000E+00  1.000000E+00  1.000000E+00  1.000000E+00  2.000000E+00  2.000000E+00  2.000000E+00  0.000000E+00
 0.000000E+00  0.000000E+00  1.000000E+00  1.000000E+00  1.000000E+00  2.000000E+00  2.000000E+00  2.000000E+00  0.000000E+00  0.000000E+00
 0.000000E+00  1.000000E+00  1.000000E+00  1.000000E+00  2.000000E+00  2.000000E+00  2.000000E+00
# vertex z-coordinate
 0.000000E+00  0.000000E+00  0.000000E+00  0.000000E+00  0.000000E+00  0.000000E+00  0.000000E+00  0.000000E+00  0.000000E+00  1.000000E+00
 1.000000E+00  1.000000E+00  1.000000E+00  1.000000E+00  1.000000E+00  1.000000E+00  1.000000E+00  1.000000E+00  2.000000E+00  2.000000E+00
 2.000000E+00  2.000000E+00  2.000000E+00  2.000000E+00  2.000000E+00  2.000000E+00  2.000000E+00
 0.000000E+00  0.000000E+00  0.000000E+00  0.000000E+00  0.000000E+00  0.000000E+00  0.000000E+00  0.000000E+00
 3.532542E-01  2.993827E-01  2.993827E-01  2.993827E-01  2.993827E-01  2.993827E-01  2.993827E-01  2.993827E-01
 2  1  1  1  1  1  1  1
   1    2    5    4   10   11   14   13
   2    3    6    5   11   12   15   14
   5    6    9    8   14   15   18   17
   4    5    8    7   13   14   17   16
  10   11   14   13   19   20   23   22
  11   12   15   14   20   21   24   23
  14   15   18   17   23   24   27   26
  13   14   17   16   22   23   26   25
